 vasp.5.3.3 18Dez12 (build Nov 12 2013 15:25:08) complex                         
 executed on           CrayXC_GNU date 2014.12.03  11:42:13
 running on  192 total cores
 distrk:  each k-point on  192 cores,    1 groups
 distr:  one band on NCORES_PER_BAND=   1 cores,  192 groups


--------------------------------------------------------------------------------------------------------


 INCAR:
 POTCAR:    PAW_PBE S 06Sep2000                   
 POTCAR:    PAW_PBE Cu_pv 06Sep2000               
 POTCAR:    PAW_PBE Zn 06Sep2000                  
 POTCAR:    PAW_PBE Sn_d 06Sep2000                

 ----------------------------------------------------------------------------- 
|                                                                             |
|           W    W    AA    RRRRR   N    N  II  N    N   GGGG   !!!           |
|           W    W   A  A   R    R  NN   N  II  NN   N  G    G  !!!           |
|           W    W  A    A  R    R  N N  N  II  N N  N  G       !!!           |
|           W WW W  AAAAAA  RRRRR   N  N N  II  N  N N  G  GGG   !            |
|           WW  WW  A    A  R   R   N   NN  II  N   NN  G    G                |
|           W    W  A    A  R    R  N    N  II  N    N   GGGG   !!!           |
|                                                                             |
|      For optimal performance we recommend that you set                      |
|        NPAR = 4 - approx SQRT( number of cores)                             |
|      (number of cores/NPAR must be integer)                                 |
|      This setting will greatly improve the performance of VASP for DFT.     |
|      The default NPAR=number of cores might be grossly inefficient          |
|      on modern multi-core architectures or massively parallel machines.     |
|      Do your own testing.                                                   |
|      Unfortunately you need to use the default for hybrid, GW and RPA       |
|      calculations.                                                          |
|                                                                             |
 ----------------------------------------------------------------------------- 

 POTCAR:    PAW_PBE S 06Sep2000                   
   VRHFIN =S : s2p4                                                             
   LEXCH  = PE                                                                  
   EATOM  =   276.8230 eV,   20.3459 Ry                                         
                                                                                
   TITEL  = PAW_PBE S 06Sep2000                                                 
   LULTRA =        F    use ultrasoft PP ?                                      
   IUNSCR =        1    unscreen: 0-lin 1-nonlin 2-no                           
   RPACOR =    1.500    partial core radius                                     
   POMASS =   32.066; ZVAL   =    6.000    mass and valenz                      
   RCORE  =    1.900    outmost cutoff radius                                   
   RWIGS  =    2.200; RWIGS  =    1.164    wigner-seitz radius (au A)           
   ENMAX  =  258.689; ENMIN  =  194.016 eV                                      
   ICORE  =        2    local potential                                         
   LCOR   =        T    correct aug charges                                     
   LPAW   =        T    paw PP                                                  
   EAUG   =  335.092                                                            
   DEXC   =    0.000                                                            
   RMAX   =    1.942    core radius for proj-oper                               
   RAUG   =    1.300    factor for augmentation sphere                          
   RDEP   =    1.954    radius for radial grids                                 
   RDEPT  =    1.744    core radius for aug-charge                              
                                                                                
   Atomic configuration                                                         
    6 entries                                                                   
     n  l   j            E        occ.                                          
     1  0  0.50     -2405.8406   2.0000                                         
     2  0  0.50      -211.7007   2.0000                                         
     2  1  1.50      -156.4958   6.0000                                         
     3  0  0.50       -17.2562   2.0000                                         
     3  1  0.50        -7.0085   4.0000                                         
     3  2  1.50        -6.8029   0.0000                                         
   Description                                                                  
     l       E           TYP  RCUT    TYP  RCUT                                 
     0    -17.2561641     23  1.900                                             
     0    -15.8743224     23  1.900                                             
     1     -7.0085400     23  1.900                                             
     1     -2.7779785     23  1.900                                             
     2     -6.8029130     23  1.900                                             
  local pseudopotential read in
  partial core-charges read in
  partial kinetic energy density read in
  atomic valenz-charges read in
  non local Contribution for L=           0  read in
    real space projection operators read in
  non local Contribution for L=           0  read in
    real space projection operators read in
  non local Contribution for L=           1  read in
    real space projection operators read in
  non local Contribution for L=           1  read in
    real space projection operators read in
    PAW grid and wavefunctions read in

   number of l-projection  operators is LMAX  =           4
   number of lm-projection operators is LMMAX =           8

 POTCAR:    PAW_PBE Cu_pv 06Sep2000               
   VRHFIN =Cu: d10 p1                                                           
   LEXCH  = PE                                                                  
   EATOM  =  4120.1201 eV,  302.8203 Ry                                         
                                                                                
   TITEL  = PAW_PBE Cu_pv 06Sep2000                                             
   LULTRA =        F    use ultrasoft PP ?                                      
   IUNSCR =        1    unscreen: 0-lin 1-nonlin 2-no                           
   RPACOR =    1.500    partial core radius                                     
   POMASS =   63.546; ZVAL   =   17.000    mass and valenz                      
   RCORE  =    2.000    outmost cutoff radius                                   
   RWIGS  =    2.000; RWIGS  =    1.058    wigner-seitz radius (au A)           
   ENMAX  =  368.648; ENMIN  =  276.486 eV                                      
   RCLOC  =    1.304    cutoff for local pot                                    
   LCOR   =        T    correct aug charges                                     
   LPAW   =        T    paw PP                                                  
   EAUG   =  758.233                                                            
   DEXC   =    0.000                                                            
   RMAX   =    2.046    core radius for proj-oper                               
   RAUG   =    1.300    factor for augmentation sphere                          
   RDEP   =    2.025    radius for radial grids                                 
   RDEPT  =    1.558    core radius for aug-charge                              
                                                                                
   Atomic configuration                                                         
    8 entries                                                                   
     n  l   j            E        occ.                                          
     1  0  0.50     -8850.2467   2.0000                                         
     2  0  0.50     -1062.3498   2.0000                                         
     2  1  1.50      -916.8226   6.0000                                         
     3  0  0.50      -114.6929   2.0000                                         
     3  1  1.50       -72.1325   6.0000                                         
     3  2  2.50        -5.0394  10.0000                                         
     4  0  0.50        -4.6097   1.0000                                         
     4  3  2.50        -1.3606   0.0000                                         
   Description                                                                  
     l       E           TYP  RCUT    TYP  RCUT                                 
     1    -72.1324777     23  1.700                                             
     1     -1.3605826     23  1.700                                             
     2     -5.0393776     23  2.000                                             
     2     -6.3999602     23  2.000                                             
     0     -4.6097062     23  1.800                                             
     0     14.1620818     23  1.800                                             
  local pseudopotential read in
  partial core-charges read in
  partial kinetic energy density read in
  atomic valenz-charges read in
  non local Contribution for L=           1  read in
    real space projection operators read in
  non local Contribution for L=           1  read in
    real space projection operators read in
  non local Contribution for L=           2  read in
    real space projection operators read in
  non local Contribution for L=           2  read in
    real space projection operators read in
  non local Contribution for L=           0  read in
    real space projection operators read in
  non local Contribution for L=           0  read in
    real space projection operators read in
    PAW grid and wavefunctions read in

   number of l-projection  operators is LMAX  =           6
   number of lm-projection operators is LMMAX =          18

 POTCAR:    PAW_PBE Zn 06Sep2000                  
   VRHFIN =Zn: d10 p2                                                           
   LEXCH  = PE                                                                  
   EATOM  =  1748.8345 eV,  128.5357 Ry                                         
                                                                                
   TITEL  = PAW_PBE Zn 06Sep2000                                                
   LULTRA =        F    use ultrasoft PP ?                                      
   IUNSCR =        1    unscreen: 0-lin 1-nonlin 2-no                           
   RPACOR =    2.000    partial core radius                                     
   POMASS =   65.390; ZVAL   =   12.000    mass and valenz                      
   RCORE  =    2.300    outmost cutoff radius                                   
   RWIGS  =    2.400; RWIGS  =    1.270    wigner-seitz radius (au A)           
   ENMAX  =  276.723; ENMIN  =  207.542 eV                                      
   RCLOC  =    1.828    cutoff for local pot                                    
   LCOR   =        T    correct aug charges                                     
   LPAW   =        T    paw PP                                                  
   EAUG   =  575.892                                                            
   DEXC   =    0.000                                                            
   RMAX   =    2.347    core radius for proj-oper                               
   RAUG   =    1.300    factor for augmentation sphere                          
   RDEP   =    2.324    radius for radial grids                                 
   RDEPT  =    1.788    core radius for aug-charge                              
                                                                                
   Atomic configuration                                                         
    9 entries                                                                   
     n  l   j            E        occ.                                          
     1  0  0.50     -9524.6913   2.0000                                         
     2  0  0.50     -1158.1882   2.0000                                         
     2  1  1.50     -1003.8506   6.0000                                         
     3  0  0.50      -129.2194   2.0000                                         
     3  1  1.50       -83.3890   6.0000                                         
     3  2  2.50       -10.1410  10.0000                                         
     4  0  0.50        -5.9785   2.0000                                         
     4  1  0.50        -4.0817   0.0000                                         
     4  3  2.50        -1.3606   0.0000                                         
   Description                                                                  
     l       E           TYP  RCUT    TYP  RCUT                                 
     2    -10.1410010     23  2.300                                             
     2    -11.5015836     23  2.300                                             
     0     -5.9785163     23  2.300                                             
     0      1.1858015     23  2.300                                             
     1     -2.7211652     23  2.300                                             
     1     13.2444212     23  2.300                                             
  local pseudopotential read in
  partial core-charges read in
  partial kinetic energy density read in
  atomic valenz-charges read in
  non local Contribution for L=           2  read in
    real space projection operators read in
  non local Contribution for L=           2  read in
    real space projection operators read in
  non local Contribution for L=           0  read in
    real space projection operators read in
  non local Contribution for L=           0  read in
    real space projection operators read in
  non local Contribution for L=           1  read in
    real space projection operators read in
  non local Contribution for L=           1  read in
    real space projection operators read in
    PAW grid and wavefunctions read in

   number of l-projection  operators is LMAX  =           6
   number of lm-projection operators is LMMAX =          18

 POTCAR:    PAW_PBE Sn_d 06Sep2000                
   VRHFIN =Sn: s2p2                                                             
   LEXCH  = PE                                                                  
   EATOM  =  1893.1092 eV,  139.1396 Ry                                         
                                                                                
   TITEL  = PAW_PBE Sn_d 06Sep2000                                              
   LULTRA =        F    use ultrasoft PP ?                                      
   IUNSCR =        1    unscreen: 0-lin 1-nonlin 2-no                           
   RPACOR =    2.300    partial core radius                                     
   POMASS =  118.710; ZVAL   =   14.000    mass and valenz                      
   RCORE  =    2.500    outmost cutoff radius                                   
   RWIGS  =    2.960; RWIGS  =    1.566    wigner-seitz radius (au A)           
   ENMAX  =  241.083; ENMIN  =  180.812 eV                                      
   ICORE  =        3    local potential                                         
   LCOR   =        T    correct aug charges                                     
   LPAW   =        T    paw PP                                                  
   EAUG   =  439.825                                                            
   DEXC   =    0.000                                                            
   RMAX   =    2.560    core radius for proj-oper                               
   RAUG   =    1.300    factor for augmentation sphere                          
   RDEP   =    2.659    radius for radial grids                                 
   RDEPT  =    2.046    core radius for aug-charge                              
                                                                                
   Atomic configuration                                                         
   12 entries                                                                   
     n  l   j            E        occ.                                          
     1  0  0.50    -29007.2859   2.0000                                         
     2  0  0.50     -4378.8056   2.0000                                         
     2  1  1.50     -3930.4293   6.0000                                         
     3  0  0.50      -845.0264   2.0000                                         
     3  1  1.50      -698.5725   6.0000                                         
     3  2  2.50      -473.2839  10.0000                                         
     4  0  0.50      -133.9036   2.0000                                         
     4  1  1.50       -89.6752   6.0000                                         
     4  2  2.50       -25.8375  10.0000                                         
     5  0  0.50       -10.5484   2.0000                                         
     5  1  0.50        -3.6940   2.0000                                         
     4  3  2.50        -2.7416   0.0000                                         
   Description                                                                  
     l       E           TYP  RCUT    TYP  RCUT                                 
     2    -25.8374624     23  2.500                                             
     2     -5.4423304     23  2.500                                             
     0    -10.5483727     23  2.500                                             
     0     13.6058260     23  2.500                                             
     1     -3.6939829     23  2.500                                             
     1      1.9821976     23  2.500                                             
     3     -1.3605826      7  2.500                                             
  local pseudopotential read in
  partial core-charges read in
  partial kinetic energy density read in
  atomic valenz-charges read in
  non local Contribution for L=           2  read in
    real space projection operators read in
  non local Contribution for L=           2  read in
    real space projection operators read in
  non local Contribution for L=           0  read in
    real space projection operators read in
  non local Contribution for L=           0  read in
    real space projection operators read in
  non local Contribution for L=           1  read in
    real space projection operators read in
  non local Contribution for L=           1  read in
    real space projection operators read in
    PAW grid and wavefunctions read in

   number of l-projection  operators is LMAX  =           6
   number of lm-projection operators is LMMAX =          18

 Optimization of the real space projectors (new method)

 maximal supplied QI-value         = 19.84
 optimisation between [QCUT,QGAM] = [ 11.91, 24.01] = [ 39.69,161.42] Ry 
 Optimized for a Real-space Cutoff    1.21 Angstroem

   l    n(q)    QCUT    max X(q) W(low)/X(q) W(high)/X(q)  e(spline) 
   0      9    11.905   187.594    0.97E-04    0.12E-03    0.68E-07
   0      9    11.905   164.243    0.96E-04    0.12E-03    0.68E-07
   1      8    11.905    67.533    0.16E-03    0.92E-04    0.85E-07
   1      8    11.905    50.729    0.16E-03    0.91E-04    0.82E-07
 Optimization of the real space projectors (new method)

 maximal supplied QI-value         = 18.90
 optimisation between [QCUT,QGAM] = [ 11.91, 24.00] = [ 39.69,161.29] Ry 
 Optimized for a Real-space Cutoff    1.18 Angstroem

   l    n(q)    QCUT    max X(q) W(low)/X(q) W(high)/X(q)  e(spline) 
   1      8    11.905     3.172    0.36E-04    0.73E-04    0.56E-07
   1      8    11.905     4.083    0.77E-04    0.21E-03    0.12E-06
   2      7    11.905    65.342    0.17E-03    0.68E-03    0.91E-07
   2      7    11.905    61.381    0.17E-03    0.69E-03    0.94E-07
   0      8    11.905    65.742    0.36E-04    0.14E-03    0.53E-07
   0      8    11.905    30.431    0.31E-04    0.13E-03    0.47E-07
 Optimization of the real space projectors (new method)

 maximal supplied QI-value         = 16.25
 optimisation between [QCUT,QGAM] = [ 11.86, 23.89] = [ 39.41,159.82] Ry 
 Optimized for a Real-space Cutoff    1.41 Angstroem

   l    n(q)    QCUT    max X(q) W(low)/X(q) W(high)/X(q)  e(spline) 
   2      9    11.864    46.356    0.22E-03    0.13E-03    0.20E-06
   2      9    11.864    41.843    0.22E-03    0.14E-03    0.21E-06
   0     10    11.864    48.958    0.15E-03    0.24E-04    0.29E-06
   0     10    11.864    32.776    0.14E-03    0.22E-04    0.27E-06
   1     10    11.864    17.787    0.96E-04    0.25E-03    0.18E-06
   1     10    11.864    14.435    0.84E-04    0.22E-03    0.17E-06
 Optimization of the real space projectors (new method)

 maximal supplied QI-value         = 15.12
 optimisation between [QCUT,QGAM] = [ 11.94, 23.89] = [ 39.94,159.77] Ry 
 Optimized for a Real-space Cutoff    1.41 Angstroem

   l    n(q)    QCUT    max X(q) W(low)/X(q) W(high)/X(q)  e(spline) 
   2      9    11.943     5.880    0.64E-04    0.29E-05    0.11E-06
   2      9    11.943     7.804    0.16E-03    0.49E-04    0.17E-06
   0     10    11.943    20.557    0.63E-04    0.33E-04    0.47E-07
   0     10    11.943     9.400    0.78E-04    0.42E-04    0.59E-07
   1     10    11.943    94.178    0.54E-04    0.37E-04    0.13E-06
   1     10    11.943    56.401    0.52E-04    0.35E-04    0.13E-06
  PAW_PBE S 06Sep2000                   :
 energy of atom  1       EATOM= -276.8230
 kinetic energy error for atom=    0.0012 (will be added to EATOM!!)
  PAW_PBE Cu_pv 06Sep2000               :
 energy of atom  2       EATOM=-4120.1201
 kinetic energy error for atom=    0.0369 (will be added to EATOM!!)
  PAW_PBE Zn 06Sep2000                  :
 energy of atom  3       EATOM=-1748.8345
 kinetic energy error for atom=    0.0027 (will be added to EATOM!!)
  PAW_PBE Sn_d 06Sep2000                :
 energy of atom  4       EATOM=-1893.1092
 kinetic energy error for atom=    0.0016 (will be added to EATOM!!)


 POSCAR: primitive_CONTCAR                       
  positions in direct lattice
  No initial velocities read in
 exchange correlation table for  LEXCH =        8
   RHO(1)=    0.500       N(1)  =     2000
   RHO(2)=  100.500       N(2)  =     4000



--------------------------------------------------------------------------------------------------------


 ion  position               nearest neighbor table
   1  0.379  0.127  0.878-  37 2.32  39 2.33  49 2.35  57 2.41
   2  0.129  0.377  0.378-  34 2.32  44 2.33  54 2.35  58 2.41
   3  0.121  0.373  0.878-  41 2.32  35 2.33  49 2.35  61 2.41
   4  0.371  0.123  0.378-  34 2.32  36 2.33  52 2.35  60 2.41
   5  0.127  0.121  0.122-  33 2.32  36 2.33  49 2.35  58 2.41
   6  0.377  0.371  0.622-  34 2.32  39 2.33  56 2.35  61 2.41
   7  0.373  0.379  0.122-  45 2.32  44 2.33  49 2.35  60 2.41
   8  0.123  0.129  0.622-  34 2.32  35 2.33  50 2.35  57 2.41
   9  0.879  0.127  0.878-  33 2.32  35 2.33  51 2.35  59 2.41
  10  0.629  0.377  0.378-  38 2.32  48 2.33  56 2.35  60 2.41
  11  0.621  0.373  0.878-  45 2.32  39 2.33  51 2.35  63 2.41
  12  0.871  0.123  0.378-  38 2.32  40 2.33  50 2.35  58 2.41
  13  0.627  0.121  0.122-  37 2.32  40 2.33  51 2.35  60 2.41
  14  0.877  0.371  0.622-  38 2.32  35 2.33  54 2.35  63 2.41
  15  0.873  0.379  0.122-  41 2.32  48 2.33  51 2.35  58 2.41
  16  0.623  0.129  0.622-  38 2.32  39 2.33  52 2.35  59 2.41
  17  0.379  0.627  0.878-  45 2.32  47 2.33  53 2.35  61 2.41
  18  0.129  0.877  0.378-  42 2.32  36 2.33  50 2.35  62 2.41
  19  0.121  0.873  0.878-  33 2.32  43 2.33  53 2.35  57 2.41
  20  0.371  0.623  0.378-  42 2.32  44 2.33  56 2.35  64 2.41
  21  0.127  0.621  0.122-  41 2.32  44 2.33  53 2.35  62 2.41
  22  0.377  0.871  0.622-  42 2.32  47 2.33  52 2.35  57 2.41
  23  0.373  0.879  0.122-  37 2.32  36 2.33  53 2.35  64 2.41
  24  0.123  0.629  0.622-  42 2.32  43 2.33  54 2.35  61 2.41
  25  0.879  0.627  0.878-  41 2.32  43 2.33  55 2.35  63 2.41
  26  0.629  0.877  0.378-  46 2.32  40 2.33  52 2.35  64 2.41
  27  0.621  0.873  0.878-  37 2.32  47 2.33  55 2.35  59 2.41
  28  0.871  0.623  0.378-  46 2.32  48 2.33  54 2.35  62 2.41
  29  0.627  0.621  0.122-  45 2.32  48 2.33  55 2.35  64 2.41
  30  0.877  0.871  0.622-  46 2.32  43 2.33  50 2.35  59 2.41
  31  0.873  0.879  0.122-  33 2.32  40 2.33  55 2.35  62 2.41
  32  0.623  0.629  0.622-  46 2.32  47 2.33  56 2.35  63 2.41
  33  0.000  0.000  0.000-   9 2.32  19 2.32  31 2.32   5 2.32
  34  0.250  0.250  0.500-   6 2.32   8 2.32   2 2.32   4 2.32
  35  0.000  0.250  0.750-   8 2.33   9 2.33  14 2.33   3 2.33
  36  0.250  0.000  0.250-   4 2.33  18 2.33  23 2.33   5 2.33
  37  0.500  0.000  0.000-   1 2.32  27 2.32  23 2.32  13 2.32
  38  0.750  0.250  0.500-  14 2.32  16 2.32  10 2.32  12 2.32
  39  0.500  0.250  0.750-   1 2.33   6 2.33  11 2.33  16 2.33
  40  0.750  0.000  0.250-  12 2.33  26 2.33  31 2.33  13 2.33
  41  0.000  0.500  0.000-  25 2.32   3 2.32  21 2.32  15 2.32
  42  0.250  0.750  0.500-  22 2.32  24 2.32  18 2.32  20 2.32
  43  0.000  0.750  0.750-  24 2.33  25 2.33  30 2.33  19 2.33
  44  0.250  0.500  0.250-   2 2.33  20 2.33   7 2.33  21 2.33
  45  0.500  0.500  0.000-  11 2.32  17 2.32   7 2.32  29 2.32
  46  0.750  0.750  0.500-  30 2.32  32 2.32  26 2.32  28 2.32
  47  0.500  0.750  0.750-  17 2.33  22 2.33  27 2.33  32 2.33
  48  0.750  0.500  0.250-  10 2.33  28 2.33  15 2.33  29 2.33
  49  0.250  0.250  0.000-   3 2.35   1 2.35   5 2.35   7 2.35
  50  0.000  0.000  0.500-   8 2.35  30 2.35  18 2.35  12 2.35
  51  0.750  0.250  0.000-   9 2.35  11 2.35  13 2.35  15 2.35
  52  0.500  0.000  0.500-  16 2.35  22 2.35   4 2.35  26 2.35
  53  0.250  0.750  0.000-  19 2.35  17 2.35  21 2.35  23 2.35
  54  0.000  0.500  0.500-  14 2.35  24 2.35   2 2.35  28 2.35
  55  0.750  0.750  0.000-  25 2.35  27 2.35  29 2.35  31 2.35
  56  0.500  0.500  0.500-   6 2.35  32 2.35  20 2.35  10 2.35
  57  0.250  0.000  0.750-  19 2.41   8 2.41   1 2.41  22 2.41
  58  0.000  0.250  0.250-   5 2.41   2 2.41  12 2.41  15 2.41
  59  0.750  0.000  0.750-   9 2.41  16 2.41  27 2.41  30 2.41
  60  0.500  0.250  0.250-  13 2.41  10 2.41   4 2.41   7 2.41
  61  0.250  0.500  0.750-   3 2.41   6 2.41  17 2.41  24 2.41
  62  0.000  0.750  0.250-  18 2.41  28 2.41  21 2.41  31 2.41
  63  0.750  0.500  0.750-  11 2.41  14 2.41  25 2.41  32 2.41
  64  0.500  0.750  0.250-  20 2.41  26 2.41  23 2.41  29 2.41

  LATTYP: Found a simple tetragonal cell.
 ALAT       =    10.8753995895
 C/A-ratio  =     0.9982805555
  
  Lattice vectors:
  
 A1 = (  10.8753995895,   0.0000000000,   0.0000000000)
 A2 = (   0.0000000000,  10.8753995895,   0.0000000000)
 A3 = (   0.0000000000,   0.0000000000,  10.8566999435)


Analysis of symmetry for initial positions (statically):
=====================================================================
 Subroutine PRICEL returns following result:
 
  LATTYP: Found a body centered tetragonal cell.
 ALAT       =     5.4376997948
 C/A-ratio  =     1.9965611110
  
  Lattice vectors:
  
 A1 = (   2.7188498974,  -2.7188498974,   5.4283499718)
 A2 = (  -2.7188498974,   2.7188498974,   5.4283499717)
 A3 = (  -2.7188498974,  -2.7188498974,  -5.4283499718)
 
   8 primitive cells build up your supercell.
 

 Routine SETGRP: Setting up the symmetry group for a 
 simple tetragonal supercell.


 Subroutine GETGRP returns: Found  4 space group operations
 (whereof  4 operations were pure point group operations)
 out of a pool of 16 trial point group operations.


The static configuration has the point symmetry S_4 .


Analysis of symmetry for dynamics (positions and initial velocities):
=====================================================================
 Subroutine PRICEL returns following result:
 
  LATTYP: Found a body centered tetragonal cell.
 ALAT       =     5.4376997948
 C/A-ratio  =     1.9965611110
  
  Lattice vectors:
  
 A1 = (   2.7188498974,  -2.7188498974,   5.4283499718)
 A2 = (  -2.7188498974,   2.7188498974,   5.4283499717)
 A3 = (  -2.7188498974,  -2.7188498974,  -5.4283499718)
 
   8 primitive cells build up your supercell.
 

 Routine SETGRP: Setting up the symmetry group for a 
 simple tetragonal supercell.


 Subroutine GETGRP returns: Found  4 space group operations
 (whereof  4 operations were pure point group operations)
 out of a pool of 16 trial point group operations.


The dynamic configuration has the point symmetry S_4 .


 irot  :   1
 --------------------------------------------------------------------
 isymop:   1   0   0
           0   1   0
           0   0   1

 gtrans:    -0.0000000    -0.0000000     0.0000000

 ptrans:     0.0000000     0.0000000     0.0000000
 rotmap:
 (   1->   1)  (   2->   2)  (   3->   3)  (   4->   4)  (   5->   5) 
 (   6->   6)  (   7->   7)  (   8->   8)  (   9->   9)  (  10->  10) 
 (  11->  11)  (  12->  12)  (  13->  13)  (  14->  14)  (  15->  15) 
 (  16->  16)  (  17->  17)  (  18->  18)  (  19->  19)  (  20->  20) 
 (  21->  21)  (  22->  22)  (  23->  23)  (  24->  24)  (  25->  25) 
 (  26->  26)  (  27->  27)  (  28->  28)  (  29->  29)  (  30->  30) 
 (  31->  31)  (  32->  32)  (  33->  33)  (  34->  34)  (  35->  35) 
 (  36->  36)  (  37->  37)  (  38->  38)  (  39->  39)  (  40->  40) 
 (  41->  41)  (  42->  42)  (  43->  43)  (  44->  44)  (  45->  45) 
 (  46->  46)  (  47->  47)  (  48->  48)  (  49->  49)  (  50->  50) 
 (  51->  51)  (  52->  52)  (  53->  53)  (  54->  54)  (  55->  55) 
 (  56->  56)  (  57->  57)  (  58->  58)  (  59->  59)  (  60->  60) 
 (  61->  61)  (  62->  62)  (  63->  63)  (  64->  64) 

 ptrans:     0.2500000     0.7500000     0.5000000
 rotmap:
 (   1->  26)  (   2->   1)  (   3->   4)  (   4->  27)  (   5->  22) 
 (   6->  13)  (   7->  16)  (   8->  23)  (   9->  18)  (  10->   9) 
 (  11->  12)  (  12->  19)  (  13->  30)  (  14->   5)  (  15->   8) 
 (  16->  31)  (  17->  10)  (  18->  17)  (  19->  20)  (  20->  11) 
 (  21->   6)  (  22->  29)  (  23->  32)  (  24->   7)  (  25->   2) 
 (  26->  25)  (  27->  28)  (  28->   3)  (  29->  14)  (  30->  21) 
 (  31->  24)  (  32->  15)  (  33->  42)  (  34->  37)  (  35->  36) 
 (  36->  47)  (  37->  46)  (  38->  33)  (  39->  40)  (  40->  43) 
 (  41->  34)  (  42->  45)  (  43->  44)  (  44->  39)  (  45->  38) 
 (  46->  41)  (  47->  48)  (  48->  35)  (  49->  52)  (  50->  53) 
 (  51->  50)  (  52->  55)  (  53->  56)  (  54->  49)  (  55->  54) 
 (  56->  51)  (  57->  64)  (  58->  57)  (  59->  62)  (  60->  59) 
 (  61->  60)  (  62->  61)  (  63->  58)  (  64->  63) 

 ptrans:     0.5000000     0.5000000     0.0000000
 rotmap:
 (   1->  25)  (   2->  26)  (   3->  27)  (   4->  28)  (   5->  29) 
 (   6->  30)  (   7->  31)  (   8->  32)  (   9->  17)  (  10->  18) 
 (  11->  19)  (  12->  20)  (  13->  21)  (  14->  22)  (  15->  23) 
 (  16->  24)  (  17->   9)  (  18->  10)  (  19->  11)  (  20->  12) 
 (  21->  13)  (  22->  14)  (  23->  15)  (  24->  16)  (  25->   1) 
 (  26->   2)  (  27->   3)  (  28->   4)  (  29->   5)  (  30->   6) 
 (  31->   7)  (  32->   8)  (  33->  45)  (  34->  46)  (  35->  47) 
 (  36->  48)  (  37->  41)  (  38->  42)  (  39->  43)  (  40->  44) 
 (  41->  37)  (  42->  38)  (  43->  39)  (  44->  40)  (  45->  33) 
 (  46->  34)  (  47->  35)  (  48->  36)  (  49->  55)  (  50->  56) 
 (  51->  53)  (  52->  54)  (  53->  51)  (  54->  52)  (  55->  49) 
 (  56->  50)  (  57->  63)  (  58->  64)  (  59->  61)  (  60->  62) 
 (  61->  59)  (  62->  60)  (  63->  57)  (  64->  58) 

 ptrans:     0.7500000     0.2500000     0.5000000
 rotmap:
 (   1->   2)  (   2->  25)  (   3->  28)  (   4->   3)  (   5->  14) 
 (   6->  21)  (   7->  24)  (   8->  15)  (   9->  10)  (  10->  17) 
 (  11->  20)  (  12->  11)  (  13->   6)  (  14->  29)  (  15->  32) 
 (  16->   7)  (  17->  18)  (  18->   9)  (  19->  12)  (  20->  19) 
 (  21->  30)  (  22->   5)  (  23->   8)  (  24->  31)  (  25->  26) 
 (  26->   1)  (  27->   4)  (  28->  27)  (  29->  22)  (  30->  13) 
 (  31->  16)  (  32->  23)  (  33->  38)  (  34->  41)  (  35->  48) 
 (  36->  35)  (  37->  34)  (  38->  45)  (  39->  44)  (  40->  39) 
 (  41->  46)  (  42->  33)  (  43->  40)  (  44->  43)  (  45->  42) 
 (  46->  37)  (  47->  36)  (  48->  47)  (  49->  54)  (  50->  51) 
 (  51->  56)  (  52->  49)  (  53->  50)  (  54->  55)  (  55->  52) 
 (  56->  53)  (  57->  58)  (  58->  63)  (  59->  60)  (  60->  61) 
 (  61->  62)  (  62->  59)  (  63->  64)  (  64->  57) 

 ptrans:     0.7500000     0.7500000     0.5000000
 rotmap:
 (   1->  18)  (   2->   9)  (   3->  12)  (   4->  19)  (   5->  30) 
 (   6->   5)  (   7->   8)  (   8->  31)  (   9->  26)  (  10->   1) 
 (  11->   4)  (  12->  27)  (  13->  22)  (  14->  13)  (  15->  16) 
 (  16->  23)  (  17->   2)  (  18->  25)  (  19->  28)  (  20->   3) 
 (  21->  14)  (  22->  21)  (  23->  24)  (  24->  15)  (  25->  10) 
 (  26->  17)  (  27->  20)  (  28->  11)  (  29->   6)  (  30->  29) 
 (  31->  32)  (  32->   7)  (  33->  46)  (  34->  33)  (  35->  40) 
 (  36->  43)  (  37->  42)  (  38->  37)  (  39->  36)  (  40->  47) 
 (  41->  38)  (  42->  41)  (  43->  48)  (  44->  35)  (  45->  34) 
 (  46->  45)  (  47->  44)  (  48->  39)  (  49->  50)  (  50->  55) 
 (  51->  52)  (  52->  53)  (  53->  54)  (  54->  51)  (  55->  56) 
 (  56->  49)  (  57->  62)  (  58->  59)  (  59->  64)  (  60->  57) 
 (  61->  58)  (  62->  63)  (  63->  60)  (  64->  61) 

 ptrans:     0.0000000     0.5000000     0.0000000
 rotmap:
 (   1->  17)  (   2->  18)  (   3->  19)  (   4->  20)  (   5->  21) 
 (   6->  22)  (   7->  23)  (   8->  24)  (   9->  25)  (  10->  26) 
 (  11->  27)  (  12->  28)  (  13->  29)  (  14->  30)  (  15->  31) 
 (  16->  32)  (  17->   1)  (  18->   2)  (  19->   3)  (  20->   4) 
 (  21->   5)  (  22->   6)  (  23->   7)  (  24->   8)  (  25->   9) 
 (  26->  10)  (  27->  11)  (  28->  12)  (  29->  13)  (  30->  14) 
 (  31->  15)  (  32->  16)  (  33->  41)  (  34->  42)  (  35->  43) 
 (  36->  44)  (  37->  45)  (  38->  46)  (  39->  47)  (  40->  48) 
 (  41->  33)  (  42->  34)  (  43->  35)  (  44->  36)  (  45->  37) 
 (  46->  38)  (  47->  39)  (  48->  40)  (  49->  53)  (  50->  54) 
 (  51->  55)  (  52->  56)  (  53->  49)  (  54->  50)  (  55->  51) 
 (  56->  52)  (  57->  61)  (  58->  62)  (  59->  63)  (  60->  64) 
 (  61->  57)  (  62->  58)  (  63->  59)  (  64->  60) 

 ptrans:     0.2500000     0.2500000     0.5000000
 rotmap:
 (   1->  10)  (   2->  17)  (   3->  20)  (   4->  11)  (   5->   6) 
 (   6->  29)  (   7->  32)  (   8->   7)  (   9->   2)  (  10->  25) 
 (  11->  28)  (  12->   3)  (  13->  14)  (  14->  21)  (  15->  24) 
 (  16->  15)  (  17->  26)  (  18->   1)  (  19->   4)  (  20->  27) 
 (  21->  22)  (  22->  13)  (  23->  16)  (  24->  23)  (  25->  18) 
 (  26->   9)  (  27->  12)  (  28->  19)  (  29->  30)  (  30->   5) 
 (  31->   8)  (  32->  31)  (  33->  34)  (  34->  45)  (  35->  44) 
 (  36->  39)  (  37->  38)  (  38->  41)  (  39->  48)  (  40->  35) 
 (  41->  42)  (  42->  37)  (  43->  36)  (  44->  47)  (  45->  46) 
 (  46->  33)  (  47->  40)  (  48->  43)  (  49->  56)  (  50->  49) 
 (  51->  54)  (  52->  51)  (  53->  52)  (  54->  53)  (  55->  50) 
 (  56->  55)  (  57->  60)  (  58->  61)  (  59->  58)  (  60->  63) 
 (  61->  64)  (  62->  57)  (  63->  62)  (  64->  59) 

 ptrans:     0.5000000     0.0000000     0.0000000
 rotmap:
 (   1->   9)  (   2->  10)  (   3->  11)  (   4->  12)  (   5->  13) 
 (   6->  14)  (   7->  15)  (   8->  16)  (   9->   1)  (  10->   2) 
 (  11->   3)  (  12->   4)  (  13->   5)  (  14->   6)  (  15->   7) 
 (  16->   8)  (  17->  25)  (  18->  26)  (  19->  27)  (  20->  28) 
 (  21->  29)  (  22->  30)  (  23->  31)  (  24->  32)  (  25->  17) 
 (  26->  18)  (  27->  19)  (  28->  20)  (  29->  21)  (  30->  22) 
 (  31->  23)  (  32->  24)  (  33->  37)  (  34->  38)  (  35->  39) 
 (  36->  40)  (  37->  33)  (  38->  34)  (  39->  35)  (  40->  36) 
 (  41->  45)  (  42->  46)  (  43->  47)  (  44->  48)  (  45->  41) 
 (  46->  42)  (  47->  43)  (  48->  44)  (  49->  51)  (  50->  52) 
 (  51->  49)  (  52->  50)  (  53->  55)  (  54->  56)  (  55->  53) 
 (  56->  54)  (  57->  59)  (  58->  60)  (  59->  57)  (  60->  58) 
 (  61->  63)  (  62->  64)  (  63->  61)  (  64->  62) 


 irot  :   2
 --------------------------------------------------------------------
 isymop:   0   1   0
          -1   0   0
           0   0  -1

 gtrans:    -0.0000000    -0.0000000     0.0000000

 ptrans:     0.0000000     0.0000000     0.0000000
 rotmap:
 (   1->  21)  (   2->  22)  (   3->  23)  (   4->  24)  (   5->  19) 
 (   6->  20)  (   7->  17)  (   8->  18)  (   9->   5)  (  10->   6) 
 (  11->   7)  (  12->   8)  (  13->   3)  (  14->   4)  (  15->   1) 
 (  16->   2)  (  17->  29)  (  18->  30)  (  19->  31)  (  20->  32) 
 (  21->  27)  (  22->  28)  (  23->  25)  (  24->  26)  (  25->  13) 
 (  26->  14)  (  27->  15)  (  28->  16)  (  29->  11)  (  30->  12) 
 (  31->   9)  (  32->  10)  (  33->  33)  (  34->  42)  (  35->  36) 
 (  36->  43)  (  37->  41)  (  38->  34)  (  39->  44)  (  40->  35) 
 (  41->  37)  (  42->  46)  (  43->  40)  (  44->  47)  (  45->  45) 
 (  46->  38)  (  47->  48)  (  48->  39)  (  49->  53)  (  50->  50) 
 (  51->  49)  (  52->  54)  (  53->  55)  (  54->  52)  (  55->  51) 
 (  56->  56)  (  57->  62)  (  58->  57)  (  59->  58)  (  60->  61) 
 (  61->  64)  (  62->  59)  (  63->  60)  (  64->  63) 

 ptrans:     0.2500000     0.7500000     0.5000000
 rotmap:
 (   1->   6)  (   2->  29)  (   3->  32)  (   4->   7)  (   5->  20) 
 (   6->  11)  (   7->  10)  (   8->  17)  (   9->  22)  (  10->  13) 
 (  11->  16)  (  12->  23)  (  13->   4)  (  14->  27)  (  15->  26) 
 (  16->   1)  (  17->  14)  (  18->  21)  (  19->  24)  (  20->  15) 
 (  21->  28)  (  22->   3)  (  23->   2)  (  24->  25)  (  25->  30) 
 (  26->   5)  (  27->   8)  (  28->  31)  (  29->  12)  (  30->  19) 
 (  31->  18)  (  32->   9)  (  33->  42)  (  34->  45)  (  35->  47) 
 (  36->  44)  (  37->  34)  (  38->  37)  (  39->  39)  (  40->  36) 
 (  41->  46)  (  42->  41)  (  43->  43)  (  44->  48)  (  45->  38) 
 (  46->  33)  (  47->  35)  (  48->  40)  (  49->  56)  (  50->  53) 
 (  51->  52)  (  52->  49)  (  53->  54)  (  54->  55)  (  55->  50) 
 (  56->  51)  (  57->  61)  (  58->  64)  (  59->  57)  (  60->  60) 
 (  61->  63)  (  62->  62)  (  63->  59)  (  64->  58) 

 ptrans:     0.5000000     0.5000000     0.0000000
 rotmap:
 (   1->  13)  (   2->  14)  (   3->  15)  (   4->  16)  (   5->  11) 
 (   6->  12)  (   7->   9)  (   8->  10)  (   9->  29)  (  10->  30) 
 (  11->  31)  (  12->  32)  (  13->  27)  (  14->  28)  (  15->  25) 
 (  16->  26)  (  17->   5)  (  18->   6)  (  19->   7)  (  20->   8) 
 (  21->   3)  (  22->   4)  (  23->   1)  (  24->   2)  (  25->  21) 
 (  26->  22)  (  27->  23)  (  28->  24)  (  29->  19)  (  30->  20) 
 (  31->  17)  (  32->  18)  (  33->  45)  (  34->  38)  (  35->  48) 
 (  36->  39)  (  37->  37)  (  38->  46)  (  39->  40)  (  40->  47) 
 (  41->  41)  (  42->  34)  (  43->  44)  (  44->  35)  (  45->  33) 
 (  46->  42)  (  47->  36)  (  48->  43)  (  49->  51)  (  50->  56) 
 (  51->  55)  (  52->  52)  (  53->  49)  (  54->  54)  (  55->  53) 
 (  56->  50)  (  57->  60)  (  58->  63)  (  59->  64)  (  60->  59) 
 (  61->  58)  (  62->  61)  (  63->  62)  (  64->  57) 

 ptrans:     0.7500000     0.2500000     0.5000000
 rotmap:
 (   1->  30)  (   2->   5)  (   3->   8)  (   4->  31)  (   5->  12) 
 (   6->  19)  (   7->  18)  (   8->   9)  (   9->  14)  (  10->  21) 
 (  11->  24)  (  12->  15)  (  13->  28)  (  14->   3)  (  15->   2) 
 (  16->  25)  (  17->  22)  (  18->  13)  (  19->  16)  (  20->  23) 
 (  21->   4)  (  22->  27)  (  23->  26)  (  24->   1)  (  25->   6) 
 (  26->  29)  (  27->  32)  (  28->   7)  (  29->  20)  (  30->  11) 
 (  31->  10)  (  32->  17)  (  33->  38)  (  34->  33)  (  35->  35) 
 (  36->  40)  (  37->  46)  (  38->  41)  (  39->  43)  (  40->  48) 
 (  41->  34)  (  42->  37)  (  43->  39)  (  44->  36)  (  45->  42) 
 (  46->  45)  (  47->  47)  (  48->  44)  (  49->  50)  (  50->  51) 
 (  51->  54)  (  52->  55)  (  53->  52)  (  54->  49)  (  55->  56) 
 (  56->  53)  (  57->  59)  (  58->  58)  (  59->  63)  (  60->  62) 
 (  61->  57)  (  62->  60)  (  63->  61)  (  64->  64) 

 ptrans:     0.7500000     0.7500000     0.5000000
 rotmap:
 (   1->  14)  (   2->  21)  (   3->  24)  (   4->  15)  (   5->  28) 
 (   6->   3)  (   7->   2)  (   8->  25)  (   9->  30)  (  10->   5) 
 (  11->   8)  (  12->  31)  (  13->  12)  (  14->  19)  (  15->  18) 
 (  16->   9)  (  17->   6)  (  18->  29)  (  19->  32)  (  20->   7) 
 (  21->  20)  (  22->  11)  (  23->  10)  (  24->  17)  (  25->  22) 
 (  26->  13)  (  27->  16)  (  28->  23)  (  29->   4)  (  30->  27) 
 (  31->  26)  (  32->   1)  (  33->  46)  (  34->  41)  (  35->  43) 
 (  36->  48)  (  37->  38)  (  38->  33)  (  39->  35)  (  40->  40) 
 (  41->  42)  (  42->  45)  (  43->  47)  (  44->  44)  (  45->  34) 
 (  46->  37)  (  47->  39)  (  48->  36)  (  49->  54)  (  50->  55) 
 (  51->  50)  (  52->  51)  (  53->  56)  (  54->  53)  (  55->  52) 
 (  56->  49)  (  57->  63)  (  58->  62)  (  59->  59)  (  60->  58) 
 (  61->  61)  (  62->  64)  (  63->  57)  (  64->  60) 

 ptrans:     0.0000000     0.5000000     0.0000000
 rotmap:
 (   1->   5)  (   2->   6)  (   3->   7)  (   4->   8)  (   5->   3) 
 (   6->   4)  (   7->   1)  (   8->   2)  (   9->  21)  (  10->  22) 
 (  11->  23)  (  12->  24)  (  13->  19)  (  14->  20)  (  15->  17) 
 (  16->  18)  (  17->  13)  (  18->  14)  (  19->  15)  (  20->  16) 
 (  21->  11)  (  22->  12)  (  23->   9)  (  24->  10)  (  25->  29) 
 (  26->  30)  (  27->  31)  (  28->  32)  (  29->  27)  (  30->  28) 
 (  31->  25)  (  32->  26)  (  33->  41)  (  34->  34)  (  35->  44) 
 (  36->  35)  (  37->  33)  (  38->  42)  (  39->  36)  (  40->  43) 
 (  41->  45)  (  42->  38)  (  43->  48)  (  44->  39)  (  45->  37) 
 (  46->  46)  (  47->  40)  (  48->  47)  (  49->  49)  (  50->  54) 
 (  51->  53)  (  52->  50)  (  53->  51)  (  54->  56)  (  55->  55) 
 (  56->  52)  (  57->  58)  (  58->  61)  (  59->  62)  (  60->  57) 
 (  61->  60)  (  62->  63)  (  63->  64)  (  64->  59) 

 ptrans:     0.2500000     0.2500000     0.5000000
 rotmap:
 (   1->  22)  (   2->  13)  (   3->  16)  (   4->  23)  (   5->   4) 
 (   6->  27)  (   7->  26)  (   8->   1)  (   9->   6)  (  10->  29) 
 (  11->  32)  (  12->   7)  (  13->  20)  (  14->  11)  (  15->  10) 
 (  16->  17)  (  17->  30)  (  18->   5)  (  19->   8)  (  20->  31) 
 (  21->  12)  (  22->  19)  (  23->  18)  (  24->   9)  (  25->  14) 
 (  26->  21)  (  27->  24)  (  28->  15)  (  29->  28)  (  30->   3) 
 (  31->   2)  (  32->  25)  (  33->  34)  (  34->  37)  (  35->  39) 
 (  36->  36)  (  37->  42)  (  38->  45)  (  39->  47)  (  40->  44) 
 (  41->  38)  (  42->  33)  (  43->  35)  (  44->  40)  (  45->  46) 
 (  46->  41)  (  47->  43)  (  48->  48)  (  49->  52)  (  50->  49) 
 (  51->  56)  (  52->  53)  (  53->  50)  (  54->  51)  (  55->  54) 
 (  56->  55)  (  57->  57)  (  58->  60)  (  59->  61)  (  60->  64) 
 (  61->  59)  (  62->  58)  (  63->  63)  (  64->  62) 

 ptrans:     0.5000000     0.0000000     0.0000000
 rotmap:
 (   1->  29)  (   2->  30)  (   3->  31)  (   4->  32)  (   5->  27) 
 (   6->  28)  (   7->  25)  (   8->  26)  (   9->  13)  (  10->  14) 
 (  11->  15)  (  12->  16)  (  13->  11)  (  14->  12)  (  15->   9) 
 (  16->  10)  (  17->  21)  (  18->  22)  (  19->  23)  (  20->  24) 
 (  21->  19)  (  22->  20)  (  23->  17)  (  24->  18)  (  25->   5) 
 (  26->   6)  (  27->   7)  (  28->   8)  (  29->   3)  (  30->   4) 
 (  31->   1)  (  32->   2)  (  33->  37)  (  34->  46)  (  35->  40) 
 (  36->  47)  (  37->  45)  (  38->  38)  (  39->  48)  (  40->  39) 
 (  41->  33)  (  42->  42)  (  43->  36)  (  44->  43)  (  45->  41) 
 (  46->  34)  (  47->  44)  (  48->  35)  (  49->  55)  (  50->  52) 
 (  51->  51)  (  52->  56)  (  53->  53)  (  54->  50)  (  55->  49) 
 (  56->  54)  (  57->  64)  (  58->  59)  (  59->  60)  (  60->  63) 
 (  61->  62)  (  62->  57)  (  63->  58)  (  64->  61) 


 irot  :   3
 --------------------------------------------------------------------
 isymop:  -1   0   0
           0  -1   0
           0   0   1

 gtrans:    -0.0000000    -0.0000000     0.0000000

 ptrans:     0.0000000     0.0000000     0.0000000
 rotmap:
 (   1->  27)  (   2->  28)  (   3->  25)  (   4->  26)  (   5->  31) 
 (   6->  32)  (   7->  29)  (   8->  30)  (   9->  19)  (  10->  20) 
 (  11->  17)  (  12->  18)  (  13->  23)  (  14->  24)  (  15->  21) 
 (  16->  22)  (  17->  11)  (  18->  12)  (  19->   9)  (  20->  10) 
 (  21->  15)  (  22->  16)  (  23->  13)  (  24->  14)  (  25->   3) 
 (  26->   4)  (  27->   1)  (  28->   2)  (  29->   7)  (  30->   8) 
 (  31->   5)  (  32->   6)  (  33->  33)  (  34->  46)  (  35->  43) 
 (  36->  40)  (  37->  37)  (  38->  42)  (  39->  47)  (  40->  36) 
 (  41->  41)  (  42->  38)  (  43->  35)  (  44->  48)  (  45->  45) 
 (  46->  34)  (  47->  39)  (  48->  44)  (  49->  55)  (  50->  50) 
 (  51->  53)  (  52->  52)  (  53->  51)  (  54->  54)  (  55->  49) 
 (  56->  56)  (  57->  59)  (  58->  62)  (  59->  57)  (  60->  64) 
 (  61->  63)  (  62->  58)  (  63->  61)  (  64->  60) 

 ptrans:     0.2500000     0.7500000     0.5000000
 rotmap:
 (   1->  28)  (   2->   3)  (   3->   2)  (   4->  25)  (   5->  24) 
 (   6->  15)  (   7->  14)  (   8->  21)  (   9->  20)  (  10->  11) 
 (  11->  10)  (  12->  17)  (  13->  32)  (  14->   7)  (  15->   6) 
 (  16->  29)  (  17->  12)  (  18->  19)  (  19->  18)  (  20->   9) 
 (  21->   8)  (  22->  31)  (  23->  30)  (  24->   5)  (  25->   4) 
 (  26->  27)  (  27->  26)  (  28->   1)  (  29->  16)  (  30->  23) 
 (  31->  22)  (  32->  13)  (  33->  42)  (  34->  41)  (  35->  44) 
 (  36->  43)  (  37->  46)  (  38->  45)  (  39->  48)  (  40->  47) 
 (  41->  34)  (  42->  33)  (  43->  36)  (  44->  35)  (  45->  38) 
 (  46->  37)  (  47->  40)  (  48->  39)  (  49->  54)  (  50->  53) 
 (  51->  56)  (  52->  55)  (  53->  50)  (  54->  49)  (  55->  52) 
 (  56->  51)  (  57->  62)  (  58->  61)  (  59->  64)  (  60->  63) 
 (  61->  58)  (  62->  57)  (  63->  60)  (  64->  59) 

 ptrans:     0.5000000     0.5000000     0.0000000
 rotmap:
 (   1->   3)  (   2->   4)  (   3->   1)  (   4->   2)  (   5->   7) 
 (   6->   8)  (   7->   5)  (   8->   6)  (   9->  11)  (  10->  12) 
 (  11->   9)  (  12->  10)  (  13->  15)  (  14->  16)  (  15->  13) 
 (  16->  14)  (  17->  19)  (  18->  20)  (  19->  17)  (  20->  18) 
 (  21->  23)  (  22->  24)  (  23->  21)  (  24->  22)  (  25->  27) 
 (  26->  28)  (  27->  25)  (  28->  26)  (  29->  31)  (  30->  32) 
 (  31->  29)  (  32->  30)  (  33->  45)  (  34->  34)  (  35->  39) 
 (  36->  44)  (  37->  41)  (  38->  38)  (  39->  35)  (  40->  48) 
 (  41->  37)  (  42->  42)  (  43->  47)  (  44->  36)  (  45->  33) 
 (  46->  46)  (  47->  43)  (  48->  40)  (  49->  49)  (  50->  56) 
 (  51->  51)  (  52->  54)  (  53->  53)  (  54->  52)  (  55->  55) 
 (  56->  50)  (  57->  61)  (  58->  60)  (  59->  63)  (  60->  58) 
 (  61->  57)  (  62->  64)  (  63->  59)  (  64->  62) 

 ptrans:     0.7500000     0.2500000     0.5000000
 rotmap:
 (   1->   4)  (   2->  27)  (   3->  26)  (   4->   1)  (   5->  16) 
 (   6->  23)  (   7->  22)  (   8->  13)  (   9->  12)  (  10->  19) 
 (  11->  18)  (  12->   9)  (  13->   8)  (  14->  31)  (  15->  30) 
 (  16->   5)  (  17->  20)  (  18->  11)  (  19->  10)  (  20->  17) 
 (  21->  32)  (  22->   7)  (  23->   6)  (  24->  29)  (  25->  28) 
 (  26->   3)  (  27->   2)  (  28->  25)  (  29->  24)  (  30->  15) 
 (  31->  14)  (  32->  21)  (  33->  38)  (  34->  37)  (  35->  40) 
 (  36->  39)  (  37->  34)  (  38->  33)  (  39->  36)  (  40->  35) 
 (  41->  46)  (  42->  45)  (  43->  48)  (  44->  47)  (  45->  42) 
 (  46->  41)  (  47->  44)  (  48->  43)  (  49->  52)  (  50->  51) 
 (  51->  50)  (  52->  49)  (  53->  56)  (  54->  55)  (  55->  54) 
 (  56->  53)  (  57->  60)  (  58->  59)  (  59->  58)  (  60->  57) 
 (  61->  64)  (  62->  63)  (  63->  62)  (  64->  61) 

 ptrans:     0.7500000     0.7500000     0.5000000
 rotmap:
 (   1->  20)  (   2->  11)  (   3->  10)  (   4->  17)  (   5->  32) 
 (   6->   7)  (   7->   6)  (   8->  29)  (   9->  28)  (  10->   3) 
 (  11->   2)  (  12->  25)  (  13->  24)  (  14->  15)  (  15->  14) 
 (  16->  21)  (  17->   4)  (  18->  27)  (  19->  26)  (  20->   1) 
 (  21->  16)  (  22->  23)  (  23->  22)  (  24->  13)  (  25->  12) 
 (  26->  19)  (  27->  18)  (  28->   9)  (  29->   8)  (  30->  31) 
 (  31->  30)  (  32->   5)  (  33->  46)  (  34->  45)  (  35->  48) 
 (  36->  47)  (  37->  42)  (  38->  41)  (  39->  44)  (  40->  43) 
 (  41->  38)  (  42->  37)  (  43->  40)  (  44->  39)  (  45->  34) 
 (  46->  33)  (  47->  36)  (  48->  35)  (  49->  56)  (  50->  55) 
 (  51->  54)  (  52->  53)  (  53->  52)  (  54->  51)  (  55->  50) 
 (  56->  49)  (  57->  64)  (  58->  63)  (  59->  62)  (  60->  61) 
 (  61->  60)  (  62->  59)  (  63->  58)  (  64->  57) 

 ptrans:     0.0000000     0.5000000     0.0000000
 rotmap:
 (   1->  11)  (   2->  12)  (   3->   9)  (   4->  10)  (   5->  15) 
 (   6->  16)  (   7->  13)  (   8->  14)  (   9->   3)  (  10->   4) 
 (  11->   1)  (  12->   2)  (  13->   7)  (  14->   8)  (  15->   5) 
 (  16->   6)  (  17->  27)  (  18->  28)  (  19->  25)  (  20->  26) 
 (  21->  31)  (  22->  32)  (  23->  29)  (  24->  30)  (  25->  19) 
 (  26->  20)  (  27->  17)  (  28->  18)  (  29->  23)  (  30->  24) 
 (  31->  21)  (  32->  22)  (  33->  41)  (  34->  38)  (  35->  35) 
 (  36->  48)  (  37->  45)  (  38->  34)  (  39->  39)  (  40->  44) 
 (  41->  33)  (  42->  46)  (  43->  43)  (  44->  40)  (  45->  37) 
 (  46->  42)  (  47->  47)  (  48->  36)  (  49->  51)  (  50->  54) 
 (  51->  49)  (  52->  56)  (  53->  55)  (  54->  50)  (  55->  53) 
 (  56->  52)  (  57->  63)  (  58->  58)  (  59->  61)  (  60->  60) 
 (  61->  59)  (  62->  62)  (  63->  57)  (  64->  64) 

 ptrans:     0.2500000     0.2500000     0.5000000
 rotmap:
 (   1->  12)  (   2->  19)  (   3->  18)  (   4->   9)  (   5->   8) 
 (   6->  31)  (   7->  30)  (   8->   5)  (   9->   4)  (  10->  27) 
 (  11->  26)  (  12->   1)  (  13->  16)  (  14->  23)  (  15->  22) 
 (  16->  13)  (  17->  28)  (  18->   3)  (  19->   2)  (  20->  25) 
 (  21->  24)  (  22->  15)  (  23->  14)  (  24->  21)  (  25->  20) 
 (  26->  11)  (  27->  10)  (  28->  17)  (  29->  32)  (  30->   7) 
 (  31->   6)  (  32->  29)  (  33->  34)  (  34->  33)  (  35->  36) 
 (  36->  35)  (  37->  38)  (  38->  37)  (  39->  40)  (  40->  39) 
 (  41->  42)  (  42->  41)  (  43->  44)  (  44->  43)  (  45->  46) 
 (  46->  45)  (  47->  48)  (  48->  47)  (  49->  50)  (  50->  49) 
 (  51->  52)  (  52->  51)  (  53->  54)  (  54->  53)  (  55->  56) 
 (  56->  55)  (  57->  58)  (  58->  57)  (  59->  60)  (  60->  59) 
 (  61->  62)  (  62->  61)  (  63->  64)  (  64->  63) 

 ptrans:     0.5000000     0.0000000     0.0000000
 rotmap:
 (   1->  19)  (   2->  20)  (   3->  17)  (   4->  18)  (   5->  23) 
 (   6->  24)  (   7->  21)  (   8->  22)  (   9->  27)  (  10->  28) 
 (  11->  25)  (  12->  26)  (  13->  31)  (  14->  32)  (  15->  29) 
 (  16->  30)  (  17->   3)  (  18->   4)  (  19->   1)  (  20->   2) 
 (  21->   7)  (  22->   8)  (  23->   5)  (  24->   6)  (  25->  11) 
 (  26->  12)  (  27->   9)  (  28->  10)  (  29->  15)  (  30->  16) 
 (  31->  13)  (  32->  14)  (  33->  37)  (  34->  42)  (  35->  47) 
 (  36->  36)  (  37->  33)  (  38->  46)  (  39->  43)  (  40->  40) 
 (  41->  45)  (  42->  34)  (  43->  39)  (  44->  44)  (  45->  41) 
 (  46->  38)  (  47->  35)  (  48->  48)  (  49->  53)  (  50->  52) 
 (  51->  55)  (  52->  50)  (  53->  49)  (  54->  56)  (  55->  51) 
 (  56->  54)  (  57->  57)  (  58->  64)  (  59->  59)  (  60->  62) 
 (  61->  61)  (  62->  60)  (  63->  63)  (  64->  58) 


 irot  :   4
 --------------------------------------------------------------------
 isymop:   0  -1   0
           1   0   0
           0   0  -1

 gtrans:    -0.0000000    -0.0000000     0.0000000

 ptrans:     0.0000000     0.0000000     0.0000000
 rotmap:
 (   1->  15)  (   2->  16)  (   3->  13)  (   4->  14)  (   5->   9) 
 (   6->  10)  (   7->  11)  (   8->  12)  (   9->  31)  (  10->  32) 
 (  11->  29)  (  12->  30)  (  13->  25)  (  14->  26)  (  15->  27) 
 (  16->  28)  (  17->   7)  (  18->   8)  (  19->   5)  (  20->   6) 
 (  21->   1)  (  22->   2)  (  23->   3)  (  24->   4)  (  25->  23) 
 (  26->  24)  (  27->  21)  (  28->  22)  (  29->  17)  (  30->  18) 
 (  31->  19)  (  32->  20)  (  33->  33)  (  34->  38)  (  35->  40) 
 (  36->  35)  (  37->  41)  (  38->  46)  (  39->  48)  (  40->  43) 
 (  41->  37)  (  42->  34)  (  43->  36)  (  44->  39)  (  45->  45) 
 (  46->  42)  (  47->  44)  (  48->  47)  (  49->  51)  (  50->  50) 
 (  51->  55)  (  52->  54)  (  53->  49)  (  54->  52)  (  55->  53) 
 (  56->  56)  (  57->  58)  (  58->  59)  (  59->  62)  (  60->  63) 
 (  61->  60)  (  62->  57)  (  63->  64)  (  64->  61) 

 ptrans:     0.2500000     0.7500000     0.5000000
 rotmap:
 (   1->   8)  (   2->  31)  (   3->  30)  (   4->   5)  (   5->  18) 
 (   6->   9)  (   7->  12)  (   8->  19)  (   9->  24)  (  10->  15) 
 (  11->  14)  (  12->  21)  (  13->   2)  (  14->  25)  (  15->  28) 
 (  16->   3)  (  17->  16)  (  18->  23)  (  19->  22)  (  20->  13) 
 (  21->  26)  (  22->   1)  (  23->   4)  (  24->  27)  (  25->  32) 
 (  26->   7)  (  27->   6)  (  28->  29)  (  29->  10)  (  30->  17) 
 (  31->  20)  (  32->  11)  (  33->  42)  (  34->  33)  (  35->  43) 
 (  36->  36)  (  37->  34)  (  38->  41)  (  39->  35)  (  40->  44) 
 (  41->  46)  (  42->  37)  (  43->  47)  (  44->  40)  (  45->  38) 
 (  46->  45)  (  47->  39)  (  48->  48)  (  49->  50)  (  50->  53) 
 (  51->  54)  (  52->  49)  (  53->  52)  (  54->  55)  (  55->  56) 
 (  56->  51)  (  57->  57)  (  58->  62)  (  59->  61)  (  60->  58) 
 (  61->  59)  (  62->  64)  (  63->  63)  (  64->  60) 

 ptrans:     0.5000000     0.5000000     0.0000000
 rotmap:
 (   1->  23)  (   2->  24)  (   3->  21)  (   4->  22)  (   5->  17) 
 (   6->  18)  (   7->  19)  (   8->  20)  (   9->   7)  (  10->   8) 
 (  11->   5)  (  12->   6)  (  13->   1)  (  14->   2)  (  15->   3) 
 (  16->   4)  (  17->  31)  (  18->  32)  (  19->  29)  (  20->  30) 
 (  21->  25)  (  22->  26)  (  23->  27)  (  24->  28)  (  25->  15) 
 (  26->  16)  (  27->  13)  (  28->  14)  (  29->   9)  (  30->  10) 
 (  31->  11)  (  32->  12)  (  33->  45)  (  34->  42)  (  35->  44) 
 (  36->  47)  (  37->  37)  (  38->  34)  (  39->  36)  (  40->  39) 
 (  41->  41)  (  42->  46)  (  43->  48)  (  44->  43)  (  45->  33) 
 (  46->  38)  (  47->  40)  (  48->  35)  (  49->  53)  (  50->  56) 
 (  51->  49)  (  52->  52)  (  53->  55)  (  54->  54)  (  55->  51) 
 (  56->  50)  (  57->  64)  (  58->  61)  (  59->  60)  (  60->  57) 
 (  61->  62)  (  62->  63)  (  63->  58)  (  64->  59) 

 ptrans:     0.7500000     0.2500000     0.5000000
 rotmap:
 (   1->  32)  (   2->   7)  (   3->   6)  (   4->  29)  (   5->  10) 
 (   6->  17)  (   7->  20)  (   8->  11)  (   9->  16)  (  10->  23) 
 (  11->  22)  (  12->  13)  (  13->  26)  (  14->   1)  (  15->   4) 
 (  16->  27)  (  17->  24)  (  18->  15)  (  19->  14)  (  20->  21) 
 (  21->   2)  (  22->  25)  (  23->  28)  (  24->   3)  (  25->   8) 
 (  26->  31)  (  27->  30)  (  28->   5)  (  29->  18)  (  30->   9) 
 (  31->  12)  (  32->  19)  (  33->  38)  (  34->  45)  (  35->  39) 
 (  36->  48)  (  37->  46)  (  38->  37)  (  39->  47)  (  40->  40) 
 (  41->  34)  (  42->  41)  (  43->  35)  (  44->  44)  (  45->  42) 
 (  46->  33)  (  47->  43)  (  48->  36)  (  49->  56)  (  50->  51) 
 (  51->  52)  (  52->  55)  (  53->  54)  (  54->  49)  (  55->  50) 
 (  56->  53)  (  57->  63)  (  58->  60)  (  59->  59)  (  60->  64) 
 (  61->  61)  (  62->  58)  (  63->  57)  (  64->  62) 

 ptrans:     0.7500000     0.7500000     0.5000000
 rotmap:
 (   1->  16)  (   2->  23)  (   3->  22)  (   4->  13)  (   5->  26) 
 (   6->   1)  (   7->   4)  (   8->  27)  (   9->  32)  (  10->   7) 
 (  11->   6)  (  12->  29)  (  13->  10)  (  14->  17)  (  15->  20) 
 (  16->  11)  (  17->   8)  (  18->  31)  (  19->  30)  (  20->   5) 
 (  21->  18)  (  22->   9)  (  23->  12)  (  24->  19)  (  25->  24) 
 (  26->  15)  (  27->  14)  (  28->  21)  (  29->   2)  (  30->  25) 
 (  31->  28)  (  32->   3)  (  33->  46)  (  34->  37)  (  35->  47) 
 (  36->  40)  (  37->  38)  (  38->  45)  (  39->  39)  (  40->  48) 
 (  41->  42)  (  42->  33)  (  43->  43)  (  44->  36)  (  45->  34) 
 (  46->  41)  (  47->  35)  (  48->  44)  (  49->  52)  (  50->  55) 
 (  51->  56)  (  52->  51)  (  53->  50)  (  54->  53)  (  55->  54) 
 (  56->  49)  (  57->  59)  (  58->  64)  (  59->  63)  (  60->  60) 
 (  61->  57)  (  62->  62)  (  63->  61)  (  64->  58) 

 ptrans:     0.0000000     0.5000000     0.0000000
 rotmap:
 (   1->  31)  (   2->  32)  (   3->  29)  (   4->  30)  (   5->  25) 
 (   6->  26)  (   7->  27)  (   8->  28)  (   9->  15)  (  10->  16) 
 (  11->  13)  (  12->  14)  (  13->   9)  (  14->  10)  (  15->  11) 
 (  16->  12)  (  17->  23)  (  18->  24)  (  19->  21)  (  20->  22) 
 (  21->  17)  (  22->  18)  (  23->  19)  (  24->  20)  (  25->   7) 
 (  26->   8)  (  27->   5)  (  28->   6)  (  29->   1)  (  30->   2) 
 (  31->   3)  (  32->   4)  (  33->  41)  (  34->  46)  (  35->  48) 
 (  36->  43)  (  37->  33)  (  38->  38)  (  39->  40)  (  40->  35) 
 (  41->  45)  (  42->  42)  (  43->  44)  (  44->  47)  (  45->  37) 
 (  46->  34)  (  47->  36)  (  48->  39)  (  49->  55)  (  50->  54) 
 (  51->  51)  (  52->  50)  (  53->  53)  (  54->  56)  (  55->  49) 
 (  56->  52)  (  57->  62)  (  58->  63)  (  59->  58)  (  60->  59) 
 (  61->  64)  (  62->  61)  (  63->  60)  (  64->  57) 

 ptrans:     0.2500000     0.2500000     0.5000000
 rotmap:
 (   1->  24)  (   2->  15)  (   3->  14)  (   4->  21)  (   5->   2) 
 (   6->  25)  (   7->  28)  (   8->   3)  (   9->   8)  (  10->  31) 
 (  11->  30)  (  12->   5)  (  13->  18)  (  14->   9)  (  15->  12) 
 (  16->  19)  (  17->  32)  (  18->   7)  (  19->   6)  (  20->  29) 
 (  21->  10)  (  22->  17)  (  23->  20)  (  24->  11)  (  25->  16) 
 (  26->  23)  (  27->  22)  (  28->  13)  (  29->  26)  (  30->   1) 
 (  31->   4)  (  32->  27)  (  33->  34)  (  34->  41)  (  35->  35) 
 (  36->  44)  (  37->  42)  (  38->  33)  (  39->  43)  (  40->  36) 
 (  41->  38)  (  42->  45)  (  43->  39)  (  44->  48)  (  45->  46) 
 (  46->  37)  (  47->  47)  (  48->  40)  (  49->  54)  (  50->  49) 
 (  51->  50)  (  52->  53)  (  53->  56)  (  54->  51)  (  55->  52) 
 (  56->  55)  (  57->  61)  (  58->  58)  (  59->  57)  (  60->  62) 
 (  61->  63)  (  62->  60)  (  63->  59)  (  64->  64) 

 ptrans:     0.5000000     0.0000000     0.0000000
 rotmap:
 (   1->   7)  (   2->   8)  (   3->   5)  (   4->   6)  (   5->   1) 
 (   6->   2)  (   7->   3)  (   8->   4)  (   9->  23)  (  10->  24) 
 (  11->  21)  (  12->  22)  (  13->  17)  (  14->  18)  (  15->  19) 
 (  16->  20)  (  17->  15)  (  18->  16)  (  19->  13)  (  20->  14) 
 (  21->   9)  (  22->  10)  (  23->  11)  (  24->  12)  (  25->  31) 
 (  26->  32)  (  27->  29)  (  28->  30)  (  29->  25)  (  30->  26) 
 (  31->  27)  (  32->  28)  (  33->  37)  (  34->  34)  (  35->  36) 
 (  36->  39)  (  37->  45)  (  38->  42)  (  39->  44)  (  40->  47) 
 (  41->  33)  (  42->  38)  (  43->  40)  (  44->  35)  (  45->  41) 
 (  46->  46)  (  47->  48)  (  48->  43)  (  49->  49)  (  50->  52) 
 (  51->  53)  (  52->  56)  (  53->  51)  (  54->  50)  (  55->  55) 
 (  56->  54)  (  57->  60)  (  58->  57)  (  59->  64)  (  60->  61) 
 (  61->  58)  (  62->  59)  (  63->  62)  (  64->  63) 


 KPOINTS: Automatic mesh                          

Automatic generation of k-mesh.
Space group operators:
 irot       det(A)        alpha          n_x          n_y          n_z        tau_x        tau_y        tau_z
    1     1.000000     0.000000     1.000000     0.000000     0.000000    -0.000000    -0.000000     0.000000
    2    -1.000000    90.000000     0.000000     0.000000    -1.000000    -0.000000    -0.000000     0.000000
    3     1.000000   180.000000     0.000000     0.000000     1.000000    -0.000000    -0.000000     0.000000
    4    -1.000000    90.000000     0.000000     0.000000     1.000000    -0.000000    -0.000000     0.000000
 
 Subroutine IBZKPT returns following result:
 ===========================================
 
 Found      6 irreducible k-points:
 
 Following reciprocal coordinates:
            Coordinates               Weight
  0.000000  0.000000  0.000000      1.000000
  0.333333  0.000000  0.000000      4.000000
  0.333333  0.333333  0.000000      4.000000
  0.000000  0.000000  0.333333      2.000000
  0.333333  0.000000  0.333333      8.000000
  0.333333  0.333333  0.333333      8.000000
 
 Following cartesian coordinates:
            Coordinates               Weight
  0.000000  0.000000  0.000000      1.000000
  0.030650  0.000000  0.000000      4.000000
  0.030650  0.030650  0.000000      4.000000
  0.000000  0.000000  0.030703      2.000000
  0.030650  0.000000  0.030703      8.000000
  0.030650  0.030650  0.030703      8.000000
 
 
 Subroutine IBZKPT_HF returns following result:
 ==============================================
 
 Found     27 k-points in 1st BZ
 the following     27 k-points will be used (e.g. in the exchange kernel)
 Following reciprocal coordinates:   # in IRBZ
  0.000000  0.000000  0.000000       1 t-inv F
  0.333333  0.000000  0.000000       2 t-inv F
  0.333333  0.333333  0.000000       3 t-inv F
  0.000000  0.000000  0.333333       4 t-inv F
  0.333333  0.000000  0.333333       5 t-inv F
  0.333333  0.333333  0.333333       6 t-inv F
  0.000000 -0.333333 -0.000000       2 t-inv F
 -0.333333 -0.000000  0.000000       2 t-inv F
 -0.000000  0.333333 -0.000000       2 t-inv F
  0.333333 -0.333333 -0.000000       3 t-inv F
 -0.333333 -0.333333  0.000000       3 t-inv F
 -0.333333  0.333333 -0.000000       3 t-inv F
  0.000000 -0.000000 -0.333333       4 t-inv F
  0.000000 -0.333333 -0.333333       5 t-inv F
 -0.333333 -0.000000  0.333333       5 t-inv F
 -0.000000  0.333333 -0.333333       5 t-inv F
  0.333333 -0.333333 -0.333333       6 t-inv F
 -0.333333 -0.333333  0.333333       6 t-inv F
 -0.333333  0.333333 -0.333333       6 t-inv F
 -0.333333 -0.000000 -0.333333       5 t-inv T
 -0.000000  0.333333  0.333333       5 t-inv T
  0.333333  0.000000 -0.333333       5 t-inv T
  0.000000 -0.333333  0.333333       5 t-inv T
 -0.333333 -0.333333 -0.333333       6 t-inv T
 -0.333333  0.333333  0.333333       6 t-inv T
  0.333333  0.333333 -0.333333       6 t-inv T
  0.333333 -0.333333  0.333333       6 t-inv T


--------------------------------------------------------------------------------------------------------




 Dimension of arrays:
   k-points           NKPTS =      6   k-points in BZ     NKDIM =     27   number of bands    NBANDS=    576
   number of dos      NEDOS =   1000   number of ions     NIONS =     64
   non local maximal  LDIM  =      6   non local SUM 2l+1 LMDIM =     18
   total plane-waves  NPLWV = 592704
   max r-space proj   IRMAX =   5421   max aug-charges    IRDMAX=  20810
   dimension x,y,z NGX =    84 NGY =   84 NGZ =   84
   dimension x,y,z NGXF=   168 NGYF=  168 NGZF=  168
   support grid    NGXF=   168 NGYF=  168 NGZF=  168
   ions per type =              32  16   8   8
 NGX,Y,Z   is equivalent  to a cutoff of  12.84, 12.84, 12.86 a.u.
 NGXF,Y,Z  is equivalent  to a cutoff of  25.68, 25.68, 25.73 a.u.


 I would recommend the setting:
   dimension x,y,z NGX =    83 NGY =   83 NGZ =   83
 SYSTEM =  CZTS                                    
 POSCAR =  primitive_CONTCAR                       

 Startparameter for this run:
   NWRITE =      2    write-flag & timer
   PREC   = accura    normal or accurate (medium, high low for compatibility)
   ISTART =      0    job   : 0-new  1-cont  2-samecut
   ICHARG =      2    charge: 1-file 2-atom 10-const
   ISPIN  =      1    spin polarized calculation?
   LNONCOLLINEAR =      F non collinear calculations
   LSORBIT =      F    spin-orbit coupling
   INIWAV =      1    electr: 0-lowe 1-rand  2-diag
   LASPH  =      F    aspherical Exc in radial PAW
   METAGGA=      F    non-selfconsistent MetaGGA calc.

 Electronic Relaxation 1
   ENCUT  =  550.0 eV  40.42 Ry    6.36 a.u.  20.80 20.80 20.76*2*pi/ulx,y,z
   ENINI  =  550.0     initial cutoff
   ENAUG  =  758.2 eV  augmentation charge cutoff
   NELM   =     40;   NELMIN=  2; NELMDL=  0     # of ELM steps 
   EDIFF  = 0.1E-04   stopping-criterion for ELM
   LREAL  =      T    real-space projection
   NLSPLINE    = F    spline interpolate recip. space projectors
   LCOMPAT=      F    compatible to vasp.4.4
   GGA_COMPAT  = T    GGA compatible to vasp.4.4-vasp.4.6
   LMAXPAW     = -100 max onsite density
   LMAXMIX     =    2 max onsite mixed and CHGCAR
   VOSKOWN=      0    Vosko Wilk Nusair interpolation
   ROPT   =   -0.00025  -0.00025  -0.00025  -0.00025
 Ionic relaxation
   EDIFFG = -.1E-02   stopping-criterion for IOM
   NSW    =    100    number of steps for IOM
   NBLOCK =      1;   KBLOCK =    100    inner block; outer block 
   IBRION =      1    ionic relax: 0-MD 1-quasi-New 2-CG
   NFREE  =      0    steps in history (QN), initial steepest desc. (CG)
   ISIF   =      2    stress and relaxation
   IWAVPR =     11    prediction:  0-non 1-charg 2-wave 3-comb
   ISYM   =      3    0-nonsym 1-usesym 2-fastsym
   LCORR  =      T    Harris-Foulkes like correction to forces

   POTIM  = 0.5000    time-step for ionic-motion
   TEIN   =    0.0    initial temperature
   TEBEG  =    0.0;   TEEND  =   0.0 temperature during run
   SMASS  =  -3.00    Nose mass-parameter (am)
   estimated Nose-frequenzy (Omega)   =  0.10E-29 period in steps =****** mass=  -0.270E-26a.u.
   SCALEE = 1.0000    scale energy and forces
   NPACO  =    256;   APACO  = 16.0  distance and # of slots for P.C.
   PSTRESS=    0.0 pullay stress

  Mass of Ions in am
   POMASS =  32.07 63.55 65.39118.71
  Ionic Valenz
   ZVAL   =   6.00 17.00 12.00 14.00
  Atomic Wigner-Seitz radii
   RWIGS  =  -1.00 -1.00 -1.00 -1.00
  virtual crystal weights 
   VCA    =   1.00  1.00  1.00  1.00
   NELECT =     672.0000    total number of electrons
   NUPDOWN=      -1.0000    fix difference up-down

 DOS related values:
   EMIN   =  10.00;   EMAX   =-10.00  energy-range for DOS
   EFERMI =   0.00
   ISMEAR =     0;   SIGMA  =   0.05  broadening in eV -4-tet -1-fermi 0-gaus

 Electronic relaxation 2 (details)
   IALGO  =     58    algorithm
   LDIAG  =      T    sub-space diagonalisation (order eigenvalues)
   LSUBROT=      T    optimize rotation matrix (better conditioning)
   TURBO    =      0    0=normal 1=particle mesh
   IRESTART =      0    0=no restart 2=restart with 2 vectors
   NREBOOT  =      0    no. of reboots
   NMIN     =      0    reboot dimension
   EREF     =   0.00    reference energy to select bands
   IMIX   =      4    mixing-type and parameters
     AMIX     =   0.40;   BMIX     =  1.00
     AMIX_MAG =   1.60;   BMIX_MAG =  1.00
     AMIN     =   0.10
     WC   =   100.;   INIMIX=   1;  MIXPRE=   1;  MAXMIX= -45

 Intra band minimization:
   WEIMIN = 0.0010     energy-eigenvalue tresh-hold
   EBREAK =  0.43E-08  absolut break condition
   DEPER  =   0.30     relativ break condition  

   TIME   =   0.30     timestep for ELM

  volume/ion in A,a.u.               =      20.06       135.40
  Fermi-wavevector in a.u.,A,eV,Ry     =   1.319274  2.493067 23.680738  1.740485
  Thomas-Fermi vector in A             =   2.449184

 Write flags
   LWAVE  =      T    write WAVECAR
   LCHARG =      T    write CHGCAR
   LVTOT  =      F    write LOCPOT, total local potential
   LVHAR  =      F    write LOCPOT, Hartree potential only
   LELF   =      F    write electronic localiz. function (ELF)
   LORBIT =     10    0 simple, 1 ext, 2 COOP (PROOUT)


 Dipole corrections
   LMONO  =      F    monopole corrections only (constant potential shift)
   LDIPOL =      F    correct potential (dipole corrections)
   IDIPOL =      0    1-x, 2-y, 3-z, 4-all directions 
   EPSILON=  1.0000000 bulk dielectric constant

 Exchange correlation treatment:
   GGA     =    PE    GGA type
   LEXCH   =     8    internal setting for exchange type
   VOSKOWN=      0    Vosko Wilk Nusair interpolation
   EXXOEP  =     0    0=HF, 1=EXX-LHF (local Hartree Fock) 2=EXX OEP
   LHFCALC =     T    Hartree Fock is set to
   LSYMGRAD=     F    symmetrize gradient (conserves proper symmetry)
   PRECFOCK=fast      Normal, Fast or Accurate (Low or Medium for compatibility)
   LRHFCALC=     F    long range Hartree Fock
   LRSCOR  =     F    long range correlation only (use DFT for short range part)
   LTHOMAS =     F    Thomas Fermi screening in HF
   LMODELHF=     F    short range full HF, long range fraction AEXX
   ENCUT4O =  -1.0   cutoff for four orbital integrals eV
   LMAXFOCK=     4    L truncation for augmentation on plane wave grid
   LMAXFOCKAE=  -1    L truncation for all-electron charge restoration on plane wave grid
   NMAXFOCKAE=   1    number of basis functions for all-electron charge restoration
   LFOCKAEDFT=     F  apply the AE augmentation even for DFT
   NKREDX  =     1    reduce k-point grid by
   NKREDY  =     1    reduce k-point grid by
   NKREDZ  =     1    reduce k-point grid by
   SHIFTRED=     F    shift reduced grid of Gamma
   HFKIDENT=     F    idential grid for each k-point
   ODDONLY =     F    use only odd q-grid points
   EVENONLY=     F    use only even q-grid points
   HFALPHA =   -1.0000 decay constant for conv. correction
   MCALPHA =    0.0000 extent of test-charge in conv. correction in multipole expansion
   AEXX    =    0.2500 exact exchange contribution
   HFSCREEN=    0.2070 screening length (either q_TF or 0.3 A-1)
   HFSCREENC=   0.2070 screening length for correlation (either q_TF or 0.3 A-1)
   HFRCUT  =    0.0000 spherical cutoff for potential kernel
   ALDAX   =    0.7500 LDA exchange part
   AGGAX   =    0.7500 GGA exchange part
   ALDAC   =    1.0000 LDA correlation
   AGGAC   =    1.0000 GGA correlation
   NBANDSGWLOW=     1    first orbital included in HF term
 Linear response parameters
   LEPSILON=     F    determine dielectric tensor
   LRPA    =     F    only Hartree local field effects (RPA)
   LNABLA  =     F    use nabla operator in PAW spheres
   LVEL    =     F    velocity operator in full k-point grid
   LINTERFAST=   F  fast interpolation
   KINTER  =     0    interpolate to denser k-point grid
   CSHIFT  =0.1000    complex shift for real part using Kramers Kronig
   OMEGAMAX=  -1.0    maximum frequency
   DEG_THRESHOLD= 0.2000000E-02 threshold for treating states as degnerate
   RTIME   =    0.100 relaxation time in fs

 Orbital magnetization related:
   ORBITALMAG=     F  switch on orbital magnetization
   LCHIMAG   =     F  perturbation theory with respect to B field
   DQ        =  0.001000  dq finite difference perturbation B field



--------------------------------------------------------------------------------------------------------


 quasi-Newton-method for relaxation of ions
 charge density and potential will be updated during run
 non-spin polarized calculation
 Conjugate gradient for all bands, subspace preconditioning
 preconditioned conjugated gradient                                        
 perform sub-space diagonalisation
    before iterative eigenvector-optimisation
 modified Broyden-mixing scheme, WC =      100.0
 initial mixing is a Kerker type mixing with AMIX =  0.4000 and BMIX =      1.0000
 Hartree-type preconditioning will be used
 using additional bands          240
 real space projection scheme for non local part
 use partial core corrections
 no Harris-corrections to forces 
 use gradient corrections 
 use of overlap-Matrix (Vanderbilt PP)
 Gauss-broadening in eV      SIGMA  =   0.05


--------------------------------------------------------------------------------------------------------


  energy-cutoff  :      550.00
  volume of cell :     1284.07
      direct lattice vectors                 reciprocal lattice vectors
    10.875399590  0.000000000  0.000000000     0.091950644  0.000000000  0.000000000
     0.000000000 10.875399590  0.000000000     0.000000000  0.091950644  0.000000000
     0.000000000  0.000000000 10.856699944     0.000000000  0.000000000  0.092109021

  length of vectors
    10.875399590 10.875399590 10.856699944     0.091950644  0.091950644  0.092109021



 k-points in units of 2pi/SCALE and weight: Automatic mesh                          
   0.00000000  0.00000000  0.00000000       0.037
   0.03065021  0.00000000  0.00000000       0.148
   0.03065021  0.03065021  0.00000000       0.148
   0.00000000  0.00000000  0.03070301       0.074
   0.03065021  0.00000000  0.03070301       0.296
   0.03065021  0.03065021  0.03070301       0.296

 k-points in reciprocal lattice and weights: Automatic mesh                          
   0.00000000  0.00000000  0.00000000       0.037
   0.33333333  0.00000000  0.00000000       0.148
   0.33333333  0.33333333  0.00000000       0.148
   0.00000000  0.00000000  0.33333333       0.074
   0.33333333  0.00000000  0.33333333       0.296
   0.33333333  0.33333333  0.33333333       0.296

 position of ions in fractional coordinates (direct lattice) 
   0.37935001  0.12737000  0.87787002
   0.12935001  0.37737000  0.37786999
   0.12065000  0.37263000  0.87787002
   0.37064999  0.12263000  0.37786999
   0.12737000  0.12065000  0.12213000
   0.37737000  0.37064999  0.62212998
   0.37263000  0.37935001  0.12213000
   0.12263000  0.12935001  0.62212998
   0.87935001  0.12737000  0.87787002
   0.62935001  0.37737000  0.37786999
   0.62064999  0.37263000  0.87787002
   0.87064999  0.12263000  0.37786999
   0.62737000  0.12065000  0.12213000
   0.87737000  0.37064999  0.62212998
   0.87263000  0.37935001  0.12213000
   0.62263000  0.12935001  0.62212998
   0.37935001  0.62737000  0.87787002
   0.12935001  0.87737000  0.37786999
   0.12065000  0.87263000  0.87787002
   0.37064999  0.62263000  0.37786999
   0.12737000  0.62064999  0.12213000
   0.37737000  0.87064999  0.62212998
   0.37263000  0.87935001  0.12213000
   0.12263000  0.62935001  0.62212998
   0.87935001  0.62737000  0.87787002
   0.62935001  0.87737000  0.37786999
   0.62064999  0.87263000  0.87787002
   0.87064999  0.62263000  0.37786999
   0.62737000  0.62064999  0.12213000
   0.87737000  0.87064999  0.62212998
   0.87263000  0.87935001  0.12213000
   0.62263000  0.62935001  0.62212998
   0.00000000  0.00000000  0.00000000
   0.25000000  0.25000000  0.50000000
   0.00000000  0.25000000  0.75000000
   0.25000000  0.00000000  0.25000000
   0.50000000  0.00000000  0.00000000
   0.75000000  0.25000000  0.50000000
   0.50000000  0.25000000  0.75000000
   0.75000000  0.00000000  0.25000000
   0.00000000  0.50000000  0.00000000
   0.25000000  0.75000000  0.50000000
   0.00000000  0.75000000  0.75000000
   0.25000000  0.50000000  0.25000000
   0.50000000  0.50000000  0.00000000
   0.75000000  0.75000000  0.50000000
   0.50000000  0.75000000  0.75000000
   0.75000000  0.50000000  0.25000000
   0.25000000  0.25000000  0.00000000
   0.00000000  0.00000000  0.50000000
   0.75000000  0.25000000  0.00000000
   0.50000000  0.00000000  0.50000000
   0.25000000  0.75000000  0.00000000
   0.00000000  0.50000000  0.50000000
   0.75000000  0.75000000  0.00000000
   0.50000000  0.50000000  0.50000000
   0.25000000  0.00000000  0.75000000
   0.00000000  0.25000000  0.25000000
   0.75000000  0.00000000  0.75000000
   0.50000000  0.25000000  0.25000000
   0.25000000  0.50000000  0.75000000
   0.00000000  0.75000000  0.25000000
   0.75000000  0.50000000  0.75000000
   0.50000000  0.75000000  0.25000000

 position of ions in cartesian coordinates  (Angst):
   4.12558291  1.38519965  9.53077143
   1.40673301  4.10404954  4.10242113
   1.31211697  4.05250015  9.53077143
   4.03096678  1.33365025  4.10242113
   1.38519965  1.31211697  1.32592875
   4.10404954  4.03096678  6.75427849
   4.05250015  4.12558291  1.32592875
   1.33365025  1.40673301  6.75427849
   9.56328271  1.38519965  9.53077143
   6.84443281  4.10404954  4.10242113
   6.74981668  4.05250015  9.53077143
   9.46866658  1.33365025  4.10242113
   6.82289944  1.31211697  1.32592875
   9.54174934  4.03096678  6.75427849
   9.49019994  4.12558291  1.32592875
   6.77135005  1.40673301  6.75427849
   4.12558291  6.82289944  9.53077143
   1.40673301  9.54174934  4.10242113
   1.31211697  9.49019994  9.53077143
   4.03096678  6.77135005  4.10242113
   1.38519965  6.74981668  1.32592875
   4.10404954  9.46866658  6.75427849
   4.05250015  9.56328271  1.32592875
   1.33365025  6.84443281  6.75427849
   9.56328271  6.82289944  9.53077143
   6.84443281  9.54174934  4.10242113
   6.74981668  9.49019994  9.53077143
   9.46866658  6.77135005  4.10242113
   6.82289944  6.74981668  1.32592875
   9.54174934  9.46866658  6.75427849
   9.49019994  9.56328271  1.32592875
   6.77135005  6.84443281  6.75427849
   0.00000000  0.00000000  0.00000000
   2.71884990  2.71884990  5.42834997
   0.00000000  2.71884990  8.14252496
   2.71884990  0.00000000  2.71417499
   5.43769979  0.00000000  0.00000000
   8.15654969  2.71884990  5.42834997
   5.43769979  2.71884990  8.14252496
   8.15654969  0.00000000  2.71417499
   0.00000000  5.43769979  0.00000000
   2.71884990  8.15654969  5.42834997
   0.00000000  8.15654969  8.14252496
   2.71884990  5.43769979  2.71417499
   5.43769979  5.43769979  0.00000000
   8.15654969  8.15654969  5.42834997
   5.43769979  8.15654969  8.14252496
   8.15654969  5.43769979  2.71417499
   2.71884990  2.71884990  0.00000000
   0.00000000  0.00000000  5.42834997
   8.15654969  2.71884990  0.00000000
   5.43769979  0.00000000  5.42834997
   2.71884990  8.15654969  0.00000000
   0.00000000  5.43769979  5.42834997
   8.15654969  8.15654969  0.00000000
   5.43769979  5.43769979  5.42834997
   2.71884990  0.00000000  8.14252496
   0.00000000  2.71884990  2.71417499
   8.15654969  0.00000000  8.14252496
   5.43769979  2.71884990  2.71417499
   2.71884990  5.43769979  8.14252496
   0.00000000  8.15654969  2.71417499
   8.15654969  5.43769979  8.14252496
   5.43769979  8.15654969  2.71417499



--------------------------------------------------------------------------------------------------------


 k-point  1 :   0.0000 0.0000 0.0000  plane waves:   37545
 k-point  2 :   0.3333 0.0000 0.0000  plane waves:   37636
 k-point  3 :   0.3333 0.3333 0.0000  plane waves:   37608
 k-point  4 :   0.0000 0.0000 0.3333  plane waves:   37658
 k-point  5 :   0.3333 0.0000 0.3333  plane waves:   37596
 k-point  6 :   0.3333 0.3333 0.3333  plane waves:   37605

 maximum and minimum number of plane-waves per node :     37658    37545

 maximum number of plane-waves:     37658
[...]
 60        1.082   1.155  10.127  12.364
 61        1.082   1.155  10.127  12.364
 62        1.082   1.155  10.127  12.364
 63        1.082   1.155  10.127  12.364
 64        1.082   1.155  10.127  12.364
------------------------------------------------
tot       58.030 188.731 304.865 551.627

    FORLOC:  cpu time    0.01: real time    0.01
    FORHF :  cpu time 6701.75: real time 6705.86
    FORNL :  cpu time    1.64: real time    1.64
    STRESS:  cpu time    4.68: real time    4.69
    FORCOR:  cpu time    0.12: real time    0.12

  FORCE on cell =-STRESS in cart. coord.  units (eV):
  Direction    XX          YY          ZZ          XY          YZ          ZX
  --------------------------------------------------------------------------------------
  Alpha Z  2199.69829  2199.69829  2199.69829
  Ewald  -19147.71631-19147.71631-18933.70635     0.00031    -0.00008    -0.00008
  Hartree 13501.20361 13501.20361 13738.19754    -0.00002    -0.00000     0.00000
  E(xc)   -3007.82029 -3007.82029 -3007.82286    -0.00000     0.00000     0.00000
  Local   -5087.47733 -5087.47733 -5540.63391    -0.00023     0.00008     0.00006
  n-local  5301.76649  5301.90092  5303.76202    -0.89334    -0.63292    -1.28524
  augment  3644.30134  3644.30134  3641.58985     0.00238     0.00000     0.00000
  Kinetic  7290.33273  7290.36532  7290.28430    -1.35985    -0.98567    -1.90796
  Fock    -4694.40157 -4694.26744 -4691.60312     0.02244     0.01870     0.04832
  -------------------------------------------------------------------------------------
  Total       0.03754     0.03754    -0.23423    -0.00000     0.00000     0.00000
  in kB       0.04684     0.04684    -0.29226    -0.00000     0.00000     0.00000
  external pressure =       -0.07 kB  Pullay stress =        0.00 kB


 VOLUME and BASIS-vectors are now :
 -----------------------------------------------------------------------------
  energy-cutoff  :      550.00
  volume of cell :     1284.07
      direct lattice vectors                 reciprocal lattice vectors
    10.875399590  0.000000000  0.000000000     0.091950644  0.000000000  0.000000000
     0.000000000 10.875399590  0.000000000     0.000000000  0.091950644  0.000000000
     0.000000000  0.000000000 10.856699944     0.000000000  0.000000000  0.092109021

  length of vectors
    10.875399590 10.875399590 10.856699944     0.091950644  0.091950644  0.092109021


 FORCES acting on ions:
    Electron-Ion                     Ewald-Force                    Non-Local-Force
 -----------------------------------------------------------------------------------------------
   0.617E+02 -.788E+01 -.619E+01   -.593E+02 0.913E+01 0.747E+01   -.212E+01 -.114E+01 -.117E+01
   0.617E+02 -.788E+01 -.619E+01   -.593E+02 0.913E+01 0.748E+01   -.212E+01 -.114E+01 -.117E+01
   -.617E+02 0.788E+01 -.619E+01   0.593E+02 -.913E+01 0.747E+01   0.212E+01 0.114E+01 -.117E+01
   -.617E+02 0.788E+01 -.619E+01   0.593E+02 -.913E+01 0.748E+01   0.212E+01 0.114E+01 -.117E+01
   -.788E+01 -.617E+02 0.619E+01   0.913E+01 0.593E+02 -.747E+01   -.114E+01 0.212E+01 0.117E+01
   -.788E+01 -.617E+02 0.619E+01   0.913E+01 0.593E+02 -.747E+01   -.114E+01 0.212E+01 0.117E+01
   0.788E+01 0.617E+02 0.619E+01   -.913E+01 -.593E+02 -.747E+01   0.114E+01 -.212E+01 0.117E+01
   0.788E+01 0.617E+02 0.619E+01   -.913E+01 -.593E+02 -.747E+01   0.114E+01 -.212E+01 0.117E+01
   0.617E+02 -.788E+01 -.619E+01   -.593E+02 0.913E+01 0.747E+01   -.212E+01 -.114E+01 -.117E+01
   0.617E+02 -.788E+01 -.619E+01   -.593E+02 0.913E+01 0.748E+01   -.212E+01 -.114E+01 -.117E+01
   -.617E+02 0.788E+01 -.619E+01   0.593E+02 -.913E+01 0.747E+01   0.212E+01 0.114E+01 -.117E+01
   -.617E+02 0.788E+01 -.619E+01   0.593E+02 -.913E+01 0.748E+01   0.212E+01 0.114E+01 -.117E+01
   -.788E+01 -.617E+02 0.619E+01   0.913E+01 0.593E+02 -.747E+01   -.114E+01 0.212E+01 0.117E+01
   -.788E+01 -.617E+02 0.619E+01   0.913E+01 0.593E+02 -.747E+01   -.114E+01 0.212E+01 0.117E+01
   0.788E+01 0.617E+02 0.619E+01   -.913E+01 -.593E+02 -.747E+01   0.114E+01 -.212E+01 0.117E+01
   0.788E+01 0.617E+02 0.619E+01   -.913E+01 -.593E+02 -.747E+01   0.114E+01 -.212E+01 0.117E+01
   0.617E+02 -.788E+01 -.619E+01   -.593E+02 0.913E+01 0.747E+01   -.212E+01 -.114E+01 -.117E+01
   0.617E+02 -.788E+01 -.619E+01   -.593E+02 0.913E+01 0.748E+01   -.212E+01 -.114E+01 -.117E+01
   -.617E+02 0.788E+01 -.619E+01   0.593E+02 -.913E+01 0.747E+01   0.212E+01 0.114E+01 -.117E+01
   -.617E+02 0.788E+01 -.619E+01   0.593E+02 -.913E+01 0.748E+01   0.212E+01 0.114E+01 -.117E+01
   -.788E+01 -.617E+02 0.619E+01   0.913E+01 0.593E+02 -.747E+01   -.114E+01 0.212E+01 0.117E+01
   -.788E+01 -.617E+02 0.619E+01   0.913E+01 0.593E+02 -.747E+01   -.114E+01 0.212E+01 0.117E+01
   0.788E+01 0.617E+02 0.619E+01   -.913E+01 -.593E+02 -.747E+01   0.114E+01 -.212E+01 0.117E+01
   0.788E+01 0.617E+02 0.619E+01   -.913E+01 -.593E+02 -.747E+01   0.114E+01 -.212E+01 0.117E+01
   0.617E+02 -.788E+01 -.619E+01   -.593E+02 0.913E+01 0.747E+01   -.212E+01 -.114E+01 -.117E+01
   0.617E+02 -.788E+01 -.619E+01   -.593E+02 0.913E+01 0.748E+01   -.212E+01 -.114E+01 -.117E+01
   -.617E+02 0.788E+01 -.619E+01   0.593E+02 -.913E+01 0.747E+01   0.212E+01 0.114E+01 -.117E+01
   -.617E+02 0.788E+01 -.619E+01   0.593E+02 -.913E+01 0.748E+01   0.212E+01 0.114E+01 -.117E+01
   -.788E+01 -.617E+02 0.619E+01   0.913E+01 0.593E+02 -.747E+01   -.114E+01 0.212E+01 0.117E+01
   -.788E+01 -.617E+02 0.619E+01   0.913E+01 0.593E+02 -.747E+01   -.114E+01 0.212E+01 0.117E+01
   0.788E+01 0.617E+02 0.619E+01   -.913E+01 -.593E+02 -.747E+01   0.114E+01 -.212E+01 0.117E+01
   0.788E+01 0.617E+02 0.619E+01   -.913E+01 -.593E+02 -.747E+01   0.114E+01 -.212E+01 0.117E+01
   0.105E-05 0.250E-05 0.338E-05   0.839E-05 -.102E-04 -.478E-04   0.325E-18 0.119E-17 0.000E+00
   0.446E-05 0.822E-05 -.231E-04   -.101E-05 -.135E-05 0.418E-04   0.542E-18 0.163E-17 0.108E-18
   -.286E-06 -.488E-05 -.417E-05   -.110E-05 0.764E-05 -.549E-06   0.217E-18 -.976E-18 0.434E-18
   -.118E-04 -.272E-05 0.269E-04   -.100E-04 -.742E-06 -.750E-05   -.195E-17 -.108E-17 -.651E-18
   -.893E-05 -.376E-05 -.156E-05   0.130E-04 -.442E-06 -.366E-04   0.184E-17 0.168E-17 0.217E-18
   -.344E-05 -.524E-05 0.106E-05   0.139E-05 -.112E-05 0.435E-04   -.976E-18 0.379E-18 0.108E-18
   0.555E-05 -.705E-05 0.257E-04   0.351E-05 -.165E-05 -.121E-04   0.152E-17 -.651E-18 0.325E-18
   -.401E-05 0.229E-05 0.589E-05   -.760E-05 -.983E-06 -.931E-05   0.651E-18 0.108E-17 0.163E-17
   0.862E-05 0.613E-05 0.129E-04   -.136E-05 -.556E-05 -.590E-04   0.239E-17 0.163E-17 -.759E-18
   0.841E-05 0.220E-05 0.109E-04   -.124E-05 0.105E-05 0.400E-04   0.651E-18 0.125E-17 0.000E+00
   -.123E-04 0.699E-05 -.288E-04   -.863E-06 0.101E-04 0.126E-05   0.282E-17 -.651E-18 0.141E-17
   -.131E-04 -.193E-04 -.417E-04   -.756E-06 0.387E-05 0.407E-05   -.217E-18 -.152E-17 -.141E-17
   0.230E-05 0.581E-05 0.552E-05   0.327E-05 0.419E-05 -.478E-04   0.867E-18 0.434E-18 0.108E-18
   0.766E-05 -.211E-05 -.200E-04   0.116E-05 0.128E-05 0.418E-04   0.108E-17 0.379E-18 0.217E-18
   -.148E-04 0.181E-04 0.408E-04   0.375E-05 0.799E-06 -.103E-04   -.759E-18 0.000E+00 0.108E-18
   0.119E-04 0.678E-05 -.260E-04   0.169E-05 0.363E-05 0.226E-05   -.325E-18 0.542E-18 0.759E-18
   -.364E-05 0.536E-05 0.104E-04   0.669E-05 -.614E-05 -.347E-04   -.867E-18 -.108E-18 0.542E-18
   0.582E-06 -.106E-06 -.266E-05   -.790E-06 -.102E-05 0.307E-04   -.173E-17 0.542E-19 -.108E-18
   -.435E-05 -.259E-05 -.423E-05   0.909E-05 0.643E-06 -.428E-04   0.542E-18 -.217E-18 0.867E-18
   0.533E-06 -.244E-07 -.110E-04   0.100E-05 -.868E-06 0.295E-04   -.119E-17 0.271E-18 -.325E-18
   0.370E-05 0.394E-05 -.439E-05   -.898E-07 -.373E-05 -.266E-04   -.434E-18 0.136E-17 0.163E-18
   0.187E-07 -.126E-06 0.461E-05   -.941E-06 0.775E-06 0.318E-04   -.542E-18 -.152E-17 -.271E-18
   0.394E-05 -.318E-05 0.105E-04   0.232E-05 0.305E-05 -.347E-04   -.867E-18 0.103E-17 0.596E-18
   -.722E-06 0.221E-06 -.257E-05   0.852E-06 0.926E-06 0.307E-04   0.184E-17 0.108E-18 0.379E-18
   0.490E-05 -.116E-04 0.158E-04   -.309E-06 0.560E-05 -.151E-04   0.260E-17 0.694E-17 0.173E-17
   0.108E-04 0.683E-05 -.143E-04   -.776E-05 -.170E-07 0.959E-05   0.867E-18 -.130E-17 0.173E-17
   -.727E-05 0.986E-05 0.134E-04   0.290E-05 -.149E-05 -.635E-05   -.347E-17 -.434E-18 0.217E-17
   0.328E-05 0.470E-05 -.171E-05   -.562E-05 -.208E-06 0.110E-04   -.520E-17 0.564E-17 -.260E-17
   0.537E-05 -.558E-05 0.265E-05   -.117E-06 0.774E-05 -.166E-04   -.867E-18 -.434E-18 -.217E-17
   -.990E-05 -.648E-05 -.154E-04   -.667E-06 0.319E-05 0.811E-06   -.113E-16 0.651E-17 0.000E+00
   -.533E-05 0.221E-05 -.868E-06   0.309E-05 0.648E-06 -.778E-05   -.434E-17 -.651E-17 0.434E-18
   -.529E-05 -.368E-05 -.190E-05   0.148E-05 0.300E-05 0.224E-05   -.147E-16 0.000E+00 0.390E-17
 -----------------------------------------------------------------------------------------------
   -.823E-04 -.758E-04 0.299E-03   -.516E-13 -.995E-13 -.639E-12   0.619E-14 0.167E-16 -.154E-14


 POSITION                                       TOTAL-FORCE (eV/Angst)
 -----------------------------------------------------------------------------------
      4.12532      1.38510      9.53081        -0.000573     -0.000112      0.000319
      1.40647      4.10395      4.10246        -0.000573     -0.000112      0.000319
      1.31238      4.05260      9.53081         0.000573      0.000112      0.000319
      4.03123      1.33375      4.10246         0.000573      0.000112      0.000319
      1.38510      1.31238      1.32589        -0.000112      0.000573     -0.000319
      4.10395      4.03123      6.75424        -0.000112      0.000573     -0.000319
      4.05260      4.12532      1.32589         0.000112     -0.000573     -0.000319
      1.33375      1.40647      6.75424         0.000112     -0.000573     -0.000319
      9.56302      1.38510      9.53081        -0.000573     -0.000112      0.000319
      6.84417      4.10395      4.10246        -0.000573     -0.000112      0.000319
      6.75008      4.05260      9.53081         0.000573      0.000112      0.000319
      9.46893      1.33375      4.10246         0.000573      0.000112      0.000319
      6.82280      1.31238      1.32589        -0.000112      0.000573     -0.000319
      9.54165      4.03123      6.75424        -0.000112      0.000573     -0.000319
      9.49030      4.12532      1.32589         0.000112     -0.000573     -0.000319
      6.77145      1.40647      6.75424         0.000112     -0.000573     -0.000319
      4.12532      6.82280      9.53081        -0.000573     -0.000112      0.000319
      1.40647      9.54165      4.10246        -0.000573     -0.000112      0.000319
      1.31238      9.49030      9.53081         0.000573      0.000112      0.000319
      4.03123      6.77145      4.10246         0.000573      0.000112      0.000319
      1.38510      6.75008      1.32589        -0.000112      0.000573     -0.000319
      4.10395      9.46893      6.75424        -0.000112      0.000573     -0.000319
      4.05260      9.56302      1.32589         0.000112     -0.000573     -0.000319
      1.33375      6.84417      6.75424         0.000112     -0.000573     -0.000319
      9.56302      6.82280      9.53081        -0.000573     -0.000112      0.000319
      6.84417      9.54165      4.10246        -0.000573     -0.000112      0.000319
      6.75008      9.49030      9.53081         0.000573      0.000112      0.000319
      9.46893      6.77145      4.10246         0.000573      0.000112      0.000319
      6.82280      6.75008      1.32589        -0.000112      0.000573     -0.000319
      9.54165      9.46893      6.75424        -0.000112      0.000573     -0.000319
      9.49030      9.56302      1.32589         0.000112     -0.000573     -0.000319
      6.77145      6.84417      6.75424         0.000112     -0.000573     -0.000319
      0.00000     -0.00000      0.00000        -0.000000     -0.000000      0.000000
      2.71885      2.71885      5.42835        -0.000000     -0.000000      0.000000
     -0.00000      2.71885      8.14252         0.000000     -0.000000      0.000000
      2.71885     -0.00000      2.71417         0.000000     -0.000000      0.000000
      5.43770      0.00000      0.00000        -0.000000     -0.000000      0.000000
      8.15655      2.71885      5.42835        -0.000000     -0.000000      0.000000
      5.43770      2.71885      8.14252         0.000000     -0.000000      0.000000
      8.15655      0.00000      2.71417        -0.000000     -0.000000      0.000000
     -0.00000      5.43770      0.00000        -0.000000     -0.000000      0.000000
      2.71885      8.15655      5.42835        -0.000000     -0.000000      0.000000
      0.00000      8.15655      8.14252        -0.000000     -0.000000      0.000000
      2.71885      5.43770      2.71417        -0.000000     -0.000000      0.000000
      5.43770      5.43770      0.00000        -0.000000     -0.000000      0.000000
      8.15655      8.15655      5.42835         0.000000     -0.000000      0.000000
      5.43770      8.15655      8.14252         0.000000     -0.000000      0.000000
      8.15655      5.43770      2.71417         0.000000     -0.000000      0.000000
      2.71885      2.71885      0.00000         0.000000     -0.000000      0.000000
     -0.00000     -0.00000      5.42835         0.000000     -0.000000      0.000000
      8.15655      2.71885      0.00000         0.000000     -0.000000      0.000000
      5.43770     -0.00000      5.42835         0.000000     -0.000000      0.000000
      2.71885      8.15655      0.00000         0.000000     -0.000000      0.000000
      0.00000      5.43770      5.42835         0.000000     -0.000000      0.000000
      8.15655      8.15655      0.00000         0.000000     -0.000000      0.000000
      5.43770      5.43770      5.42835        -0.000000     -0.000000      0.000000
      2.71885     -0.00000      8.14252         0.000000     -0.000000      0.000000
     -0.00000      2.71885      2.71417        -0.000000     -0.000000      0.000000
      8.15655     -0.00000      8.14252         0.000000     -0.000000      0.000000
      5.43770      2.71885      2.71417         0.000000     -0.000000      0.000000
      2.71885      5.43770      8.14252         0.000000     -0.000000      0.000000
      0.00000      8.15655      2.71417         0.000000     -0.000000      0.000000
      8.15655      5.43770      8.14252         0.000000     -0.000000      0.000000
      5.43770      8.15655      2.71417         0.000000     -0.000000      0.000000
 -----------------------------------------------------------------------------------
    total drift:                               -0.000082     -0.000076      0.000299


--------------------------------------------------------------------------------------------------------



  FREE ENERGIE OF THE ION-ELECTRON SYSTEM (eV)
  ---------------------------------------------------
  free  energy   TOTEN  =      -308.82805797 eV

  energy  without entropy=     -308.82805797  energy(sigma->0) =     -308.82805797

 d Force = 0.3536080E-05[ 0.194E-05, 0.514E-05]  d Energy = 0.3401628E-05 0.134E-06
 d Force = 0.1940548E+00[ 0.194E+00, 0.194E+00]  d Ewald  = 0.1940548E+00-0.354E-09


--------------------------------------------------------------------------------------------------------


    POTLOK:  cpu time    0.73: real time    0.75


--------------------------------------------------------------------------------------------------------


 Quasi-Newton relaxation of ions (Broydens 2nd method)
  g(Force)  = 0.683E-06   g(Stress)=-0.000E+00

 retain information from N=  2 steps
 eigenvalues of (default step * inverse Hessian matrix)
  average eigenvalue of G=   2.3474
 eigenvalue spectrum of G is  1.9210  2.7739


--------------------------------------------------------------------------------------------------------


  
 reached required accuracy - stopping structural energy minimisation
 writing wavefunctions
     LOOP+:  cpu time21536.94: real time21550.79
    4ORBIT:  cpu time    0.00: real time    0.00



 total charge     

# of ion     s       p       d       tot
----------------------------------------
  1        1.318   2.415   0.000   3.733
  2        1.318   2.415   0.000   3.733
  3        1.318   2.414   0.000   3.732
  4        1.318   2.414   0.000   3.732
  5        1.318   2.415   0.000   3.733
  6        1.318   2.415   0.000   3.733
  7        1.318   2.415   0.000   3.734
  8        1.318   2.415   0.000   3.734
  9        1.318   2.415   0.000   3.733
 10        1.318   2.415   0.000   3.733
 11        1.318   2.414   0.000   3.732
 12        1.318   2.414   0.000   3.732
 13        1.318   2.415   0.000   3.733
 14        1.318   2.415   0.000   3.733
 15        1.318   2.415   0.000   3.734
 16        1.318   2.415   0.000   3.734
 17        1.318   2.415   0.000   3.733
 18        1.318   2.415   0.000   3.733
 19        1.318   2.414   0.000   3.732
 20        1.318   2.414   0.000   3.732
 21        1.318   2.415   0.000   3.733
 22        1.318   2.415   0.000   3.733
 23        1.318   2.415   0.000   3.734
 24        1.318   2.415   0.000   3.734
 25        1.318   2.415   0.000   3.733
 26        1.318   2.415   0.000   3.733
 27        1.318   2.414   0.000   3.732
 28        1.318   2.414   0.000   3.732
 29        1.318   2.415   0.000   3.733
 30        1.318   2.415   0.000   3.733
 31        1.318   2.415   0.000   3.734
 32        1.318   2.415   0.000   3.734
 33        0.205   6.161   9.072  15.438
 34        0.205   6.161   9.072  15.438
 35        0.203   6.158   9.073  15.435
 36        0.203   6.158   9.073  15.435
 37        0.205   6.161   9.072  15.438
 38        0.205   6.161   9.072  15.438
 39        0.203   6.158   9.073  15.435
 40        0.203   6.158   9.073  15.435
 41        0.205   6.161   9.072  15.438
 42        0.205   6.161   9.072  15.438
 43        0.203   6.158   9.073  15.435
 44        0.203   6.158   9.073  15.435
 45        0.205   6.161   9.072  15.438
 46        0.205   6.161   9.072  15.438
 47        0.203   6.158   9.073  15.435
 48        0.203   6.158   9.073  15.435
 49        0.489   0.460   9.836  10.785
 50        0.489   0.460   9.836  10.785
 51        0.489   0.460   9.836  10.785
 52        0.489   0.460   9.836  10.785
 53        0.489   0.460   9.836  10.785
 54        0.489   0.460   9.836  10.785
 55        0.489   0.460   9.836  10.785
 56        0.489   0.460   9.836  10.785
 57        1.082   1.155  10.127  12.364
 58        1.082   1.155  10.127  12.364
 59        1.082   1.155  10.127  12.364
 60        1.082   1.155  10.127  12.364
 61        1.082   1.155  10.127  12.364
 62        1.082   1.155  10.127  12.364
 63        1.082   1.155  10.127  12.364
 64        1.082   1.155  10.127  12.364
------------------------------------------------
tot       58.030 188.731 304.865 551.627


 total amount of memory used by VASP on root node   531717. kBytes
========================================================================

   base      :      30000. kBytes
   nonlr-proj:     437653. kBytes
   fftplans  :       3431. kBytes
   grid      :      25872. kBytes
   one-center:        995. kBytes
   HF        :        259. kBytes
   wavefun   :      33507. kBytes

  
  
 General timing and accounting informations for this job:
 ========================================================
  
                  Total CPU time used (sec):   139660.922
                            User time (sec):   139557.770
                          System time (sec):      103.146
                         Elapsed time (sec):   139762.684
  
                   Maximum memory used (kb):       19356.
                   Average memory used (kb):           0.
  
                          Minor page faults:       217452
                          Major page faults:            0
                 Voluntary context switches:         2853
